
 Working directory              : /tmp/lme/molpro.acnNMrOzlO/
 Global scratch directory       : /tmp/lme/molpro.acnNMrOzlO/
 Wavefunction directory         : /home/lme/wfu/
 Main file repository           : /tmp/lme/molpro.acnNMrOzlO/

 id        : liedlgroup

 Nodes     nprocs
 sv1-c724     6
 GA implementation: MPI file
 GA implementation (serial work in mppx): MPI file

 Using customized tuning parameters: mindgm=1; mindgv=20; mindgc=4; mindgr=1; noblas=0; minvec=7
 default implementation of scratch files=sf  


 Variables initialized (1042), CPU time= 0.01 sec
 ***,water dimer
  memory, 600, m
  gthresh,optgrad=1.d-7,twoint=1.d-14,prefac=1.d-16
  orient,mass
  geometry={
  H1
  O1,H1,r1
  H2,O1,r2,H1,phi
  O2,H2,d1,O1,theta,H1,omega
  H3,O2,r3,H1,phi1,H2,theta1
  H4,O2,r4,H2,phi2,H1,theta2
  }
 
  r1=0.9656 ANG
  r2=0.9724 ANG
  phi=104.27 DEGREE
  d1=1.9601 ANG
  r3=0.9671 ANG
  r4=r3
  theta=phi
  phi1=110.44 DEGREE
  phi2=phi1
  omega=180.0 DEGREE
  theta1=57.40 DEGREE
  theta2=-theta1
 
  mass,iso
  basis=6-311g(d,p)
 
  {hf
  start,atden}
 
 
  optg
  {frequencies, symm=auto, print=0,analytical}
  put,molden, h2o_dimer.molden
 Commands initialized (847), CPU time= 0.01 sec, 718 directives.
 Default parameters read. Elapsed time= 0.14 sec

 Checking input...
 Passed
1


                                         ***  PROGRAM SYSTEM MOLPRO  ***
                                       Copyright, TTI GmbH Stuttgart, 2015
                                    Version 2024.1 linked Wed Jan 31 11:42:09 2024


 **********************************************************************************************************************************
 LABEL *   water dimer                                                                                                                                                   
  (6 PROC) 64 bit mpp version                                                            DATE: 01-May-24          TIME: 08:54:51  
 **********************************************************************************************************************************

 SHA1:             675817fde4514a4a933b69e420913a90cee4ef91
 **********************************************************************************************************************************

 Memory per process:       600 MW
 Total memory per node:   3600 MW

 GA preallocation disabled
 GA check disabled

 Variable memory set to 600.0 MW


 THRESHOLDS:

 ZERO    =  1.00D-12  ONEINT  =  1.00D-12  TWOINT  =  1.00D-14  PREFAC  =  1.00D-16  XXXXXX  =  1.00D-09  EORDER  =  1.00D-04
 ENERGY  =  0.00D+00  ETEST   =  0.00D+00  EDENS   =  0.00D+00  THRDEDEF=  1.00D-06  GRADIENT=  1.00D-05  STEP    =  1.00D-03
 ORBITAL =  1.00D-05  CIVEC   =  1.00D-05  COEFF   =  1.00D-04  PRINTCI =  5.00D-02  PUNCHCI =  9.90D+01  OPTGRAD =  1.00D-07
 OPTENERG=  1.00D-06  OPTSTEP =  3.00D-04  THRGRAD =  1.00D-10  COMPRESS=  1.00D-11  VARMIN  =  1.00D-07  VARMAX  =  1.00D-03
 THRDOUB =  0.00D+00  THRDIV  =  1.00D-05  THRRED  =  1.00D-07  THRPSP  =  1.00D+00  THRDC   =  1.00D-10  THRCS   =  1.00D-10
 THRNRM  =  1.00D-08  THREQ   =  0.00D+00  THRDE   =  1.00D+00  THRREF  =  1.00D-05  SPARFAC =  1.00D+00  THRDLP  =  1.00D-07
 THRDIA  =  1.00D-10  THRDLS  =  1.00D-07  THRGPS  =  0.00D+00  THRKEX  =  0.00D+00  THRDIS  =  2.00D-01  THRVAR  =  1.00D-10
 THRLOC  =  1.00D-06  THRGAP  =  1.00D-06  THRLOCT = -1.00D+00  THRGAPT = -1.00D+00  THRORB  =  1.00D-06  THRMLTP =  0.00D+00
 THRCPQCI=  1.00D-10  KEXTA   =  0.00D+00  THRCOARS=  0.00D+00  SYMTOL  =  1.00D-06  GRADTOL =  1.00D-06  THROVL  =  1.00D-08
 THRORTH =  1.00D-08  THRDLOVL= -1.00D+00  GRID    =  1.00D-06  GRIDMAX =  1.00D-03  DTMAX   =  0.00D+00  THROCCDE=  1.00D-01
 THROCCDE=  1.00D-01  THRPRINT=  2.50D-01

 ZCENTRE=MASS

 SETTING R1             =         0.96560000  ANG                             
 SETTING R2             =         0.97240000  ANG                             
 SETTING PHI            =       104.27000000  DEGREE                          
 SETTING D1             =         1.96010000  ANG                             
 SETTING R3             =         0.96710000  ANG                             
 SETTING R4             =         0.96710000  ANG                             
 SETTING THETA          =       104.27000000  DEGREE                          
 SETTING PHI1           =       110.44000000  DEGREE                          
 SETTING PHI2           =       110.44000000  DEGREE                          
 SETTING OMEGA          =       180.00000000  DEGREE                          
 SETTING THETA1         =        57.40000000  DEGREE                          
 SETTING THETA2         =       -57.40000000  DEGREE                          


 Using masses of most abundant isotopes

 **********************************************************************************************************************************
 SETTING BASIS          =    6-311G(D,P)


 Recomputing integrals since basis changed


 Using spherical harmonics

 Library entry H      S 6-311G               selected for orbital group  1
 Library entry H      P 6-311G**             selected for orbital group  1
 Library entry O      S 6-311G               selected for orbital group  2
 Library entry O      P 6-311G               selected for orbital group  2
 Library entry O      D 6-311G*              selected for orbital group  2


 PROGRAM * SEWARD (Integral evaluation for generally contracted gaussian basis sets)     Author: Roland Lindh, 1990

 Geometry written to block  1 of record 700

 Orientation using atomic masses  
 Molecule type: Asymmetric top
 Rotational constants:       8.9894751      9.0343455    225.3615488 GHz

 Point group  C1  



 ATOMIC COORDINATES

 NR  ATOM    CHARGE       X              Y              Z

   1  H1      1.00   -0.279011361    0.499643667   -3.965074289
   2  O1      8.00    0.026904535   -0.107828307   -2.271854077
   3  H2      1.00   -0.459485155    1.297037261   -1.191835490
   4  O2      8.00    0.161502571    0.063911934    2.245282300
   5  H3      1.00   -1.464150524    0.367137925    3.023266960
   6  H4      1.00   -0.787509683   -1.466834323    2.555356091

 Bond lengths in Bohr (Angstrom)

 1-2  1.824719546  2-3  1.837569684  4-5  1.827554135  4-6  1.827554135
     ( 0.965600000)     ( 0.972400000)     ( 0.967100000)     ( 0.967100000)

 Bond angles

  1-2-3  104.27000000   5-4-6   66.72369122

 NUCLEAR CHARGE:                   20
 NUMBER OF PRIMITIVE AOS:          96
 NUMBER OF SYMMETRY AOS:           94
 NUMBER OF CONTRACTIONS:           60   (   60A   )
 NUMBER OF INNER CORE ORBITALS:     0   (    0A   )
 NUMBER OF OUTER CORE ORBITALS:     2   (    2A   )
 NUMBER OF VALENCE ORBITALS:       12   (   12A   )


 NUCLEAR REPULSION ENERGY   39.68029193


 Eigenvalues of metric

         1 0.150E-01 0.196E-01 0.293E-01 0.373E-01 0.778E-01 0.828E-01 0.901E-01 0.908E-01


 Contracted 2-electron integrals neglected if value below      1.0D-14
 AO integral compression algorithm  1   Integral accuracy      1.0D-14

     11.796 MB (compressed) written to integral file ( 72.4%)

     Node minimum: 1.311 MB, node maximum: 2.621 MB


 NUMBER OF SORTED TWO-ELECTRON INTEGRALS:     279990.     BUFFER LENGTH:  32768
 NUMBER OF SEGMENTS:   1  SEGMENT LENGTH:     279990      RECORD LENGTH: 524288

 Memory used in sort:       0.84 MW

 SORT1 READ     2081117. AND WROTE      260862. INTEGRALS IN      1 RECORDS. CPU TIME:     0.03 SEC, REAL TIME:     0.04 SEC
 SORT2 READ     1544502. AND WROTE     1675365. INTEGRALS IN     60 RECORDS. CPU TIME:     0.03 SEC, REAL TIME:     0.02 SEC

 Node minimum:      278465.  Node maximum:      279990. integrals

 OPERATOR DM      FOR CENTER  0  COORDINATES:    0.000000    0.000000    0.000000


 **********************************************************************************************************************************
 DATASETS  * FILE   NREC   LENGTH (MB)   RECORD NAMES
              1      18       28.79       500      610      700      900      950      970     1000      129      960     1100   
                                          VAR    BASINP    GEOM    SYMINP    ZMAT    AOBASIS   BASIS     P2S    ABASIS      S 
                                         1400     1410     1200     1210     1080     1600     1650     1700   
                                           T        V       H0       H01     AOSYM     SMH    MOLCAS    OPER   

 PROGRAMS   *        TOTAL       INT
 CPU TIMES  *         0.92      0.67
 REAL TIME  *         1.33 SEC
 DISK USED  *        29.19 MB (local),      207.87 MB (total)
 GA USED    *         0.00 MB       (max)       0.00 MB       (current)
 **********************************************************************************************************************************


 Program * Restricted Hartree-Fock

 Orbital guess generated from atomic densities.

 Initial occupancy:  10

 NELEC=   20   SYM=1   MS2= 0   THRE=1.0D-08   THRD=1.0D-06   THRG=1.0D-06  HFMA2=F  DIIS_START=2   DIIS_MAX=10   DIIS_INCORE=F

 Level shifts:    0.00 (CLOSED)    0.00 (OPEN)    0.30 (GAP_MIN)

 ITER           ETOT              DE          GRAD        DDIFF     DIIS  NEXP   TIME(IT)  TIME(TOT)  DIAG
   1     -151.94629021    -151.94629021     0.00D+00     0.64D-01     0     0       0.00      0.03    start
   2     -152.01350543      -0.06721522     0.15D-01     0.13D-01     1     0       0.00      0.03    diag
   3     -152.03687884      -0.02337341     0.87D-02     0.43D-02     2     0       0.01      0.04    diag
   4     -152.03732409      -0.00044525     0.87D-03     0.59D-03     3     0       0.00      0.04    diag
   5     -152.03737928      -0.00005519     0.26D-03     0.27D-03     4     0       0.01      0.05    diag
   6     -152.03738290      -0.00000362     0.71D-04     0.65D-04     5     0       0.00      0.05    diag
   7     -152.03738349      -0.00000059     0.31D-04     0.27D-04     6     0       0.00      0.05    diag
   8     -152.03738352      -0.00000003     0.54D-05     0.84D-05     7     0       0.01      0.06    fixocc
   9     -152.03738353      -0.00000000     0.10D-05     0.14D-05     8     0       0.00      0.06    diag
  10     -152.03738353      -0.00000000     0.30D-06     0.45D-06     9     0       0.01      0.07    diag/orth
  11     -152.03738353      -0.00000000     0.62D-07     0.59D-07     0     0       0.00      0.07    diag

 Final occupancy:  10

 !RHF STATE 1.1 Energy               -152.037383526217
  RHF One-electron energy            -288.927630208155
  RHF Two-electron energy              97.209954756766
  RHF Kinetic energy                  152.176197095886
  RHF Nuclear energy                   39.680291925171
  RHF Virial quotient                  -0.999087810234

 !RHF STATE 1.1 Dipole moment          -1.13822381     0.30631394     0.22541995
 Dipole moment /Debye                  -2.89307635     0.77857239     0.57296037

 Orbital energies:

           1.1          2.1          3.1          4.1          5.1          6.1          7.1          8.1          9.1         10.1
    -20.562813   -20.519579    -1.380286    -1.309850    -0.694778    -0.643455    -0.619940    -0.544521    -0.504857    -0.473784

          11.1         12.1
      0.133171     0.185529


 HOMO     10.1    -0.473784 =     -12.8923eV
 LUMO     11.1     0.133171 =       3.6238eV
 LUMO-HOMO         0.606955 =      16.5161eV

 Orbitals saved in record  2100.2


 **********************************************************************************************************************************
 DATASETS  * FILE   NREC   LENGTH (MB)   RECORD NAMES
              1      18       28.79       500      610      700      900      950      970     1000      129      960     1100   
                                          VAR    BASINP    GEOM    SYMINP    ZMAT    AOBASIS   BASIS     P2S    ABASIS      S 
                                         1400     1410     1200     1210     1080     1600     1650     1700   
                                           T        V       H0       H01     AOSYM     SMH    MOLCAS    OPER   

              2       4        0.51       700     1000      520     2100   
                                         GEOM     BASIS   MCVARS     RHF  

 PROGRAMS   *        TOTAL    HF-SCF       INT
 CPU TIMES  *         1.02      0.10      0.67
 REAL TIME  *         1.45 SEC
 DISK USED  *        29.62 MB (local),      210.51 MB (total)
 GA USED    *         0.00 MB       (max)       0.00 MB       (current)
 **********************************************************************************************************************************


 PROGRAM * OPT (Geometry optimization)     Authors: F. Eckert and H.-J. Werner


 BFGS update of hessian

 *** Long output written to logfile /home/lme/Bachelor_Thesis_Lukas_Meinschad/Rechnungen/h2o_dimer/h2o_dimer.log ***


 Geometry optimization using default procedure for command HF-SCF

 Geometry written to block  1 of record 700

 Making model hessian for Z-matrix coordinates

 Entering Rational Function Geometry Optimization

 ITER.   ENERGY(OLD)    ENERGY(NEW)      DE          GRADMAX     GRADNORM    GRADRMS     STEPMAX     STEPLEN     STEPRMS   CPU-time
   1  -152.03738353  -152.05047122    -0.01308769  0.13935719  0.19868419  0.05735519  0.11329549  0.14223456  0.01185288      0.49
   2  -152.05047122  -152.06038407    -0.00991285  0.12612549  0.17695213  0.05108168  0.04465328  0.11399366  0.00949947      0.99
   3  -152.06038407  -152.06914586    -0.00876179  0.11338086  0.15998998  0.04618513  0.04799546  0.09536342  0.00794695      1.47
   4  -152.06914586  -152.07691838    -0.00777252  0.09805804  0.14026026  0.04048965  0.04467036  0.09134152  0.00761179      1.96
   5  -152.07691838  -152.08344167    -0.00652329  0.08240092  0.11921334  0.03441393  0.04557661  0.09080029  0.00756669      2.46
   6  -152.08344167  -152.08825607    -0.00481440  0.06707304  0.09897739  0.02857231  0.04712366  0.08681789  0.00723482      2.95
   7  -152.08825607  -152.09132623    -0.00307016  0.05428110  0.08236662  0.02377719  0.03490659  0.07388779  0.00615732      3.45
   8  -152.09132623  -152.09456769    -0.00324145  0.04359992  0.07397896  0.02135589  0.03545501  0.08264433  0.00688703      3.95
   9  -152.09456769  -152.09582571    -0.00125802  0.03569062  0.05444628  0.01571729  0.03490659  0.08187170  0.00682264      4.43
  10  -152.09582571  -152.09685750    -0.00103180  0.03234583  0.04791680  0.01383239  0.03490659  0.07350702  0.00612558      4.92
  11  -152.09685750  -152.09787021    -0.00101271  0.02817704  0.04176474  0.01205644  0.03490659  0.07894443  0.00657870      5.38
  12  -152.09787021  -152.09860915    -0.00073894  0.02472832  0.03689442  0.01065050  0.03490659  0.07805105  0.00650425      5.87
  13  -152.09860915  -152.09934444    -0.00073529  0.02042763  0.03259928  0.00941060  0.03490659  0.08535579  0.00711298      6.34
  14  -152.09934444  -152.09993985    -0.00059542  0.01655750  0.02755886  0.00795556  0.03490659  0.07755695  0.00646308      6.81
  15  -152.09993985  -152.10046853    -0.00052867  0.01289200  0.02327262  0.00671823  0.03490659  0.07880540  0.00656712      7.30
  16  -152.10046853  -152.10079077    -0.00032224  0.00745625  0.01202738  0.00347201  0.04136667  0.08469309  0.00705776      7.77
  17  -152.10079077  -152.10070007     0.00009071  0.00404252  0.00623408  0.00179962  0.04657211  0.09432103  0.00786009      8.23
  18  -152.10070007  -152.10086293    -0.00016287  0.00878943  0.01529045  0.00441397  0.03490659  0.07176987  0.00598082      8.72
  19  -152.10086293  -152.10109988    -0.00023695  0.00724513  0.01162450  0.00335570  0.03490659  0.06379500  0.00531625      9.18
  20  -152.10109988  -152.10095305     0.00014684  0.00451240  0.00601061  0.00173511  0.03490659  0.07704634  0.00642053      9.68
  21  -152.10095305  -152.10067309     0.00027995  0.00860899  0.01362538  0.00393331  0.03490659  0.06210944  0.00517579     10.15
  22  -152.10067309  -152.10017791     0.00049518  0.01159804  0.01935430  0.00558710  0.03490659  0.06546695  0.00545558     10.64
  23  -152.10017791  -152.10070152    -0.00052361  0.01632583  0.02665933  0.00769589  0.03490659  0.06553496  0.00546125     11.12
  24  -152.10070152  -152.10139370    -0.00069218  0.01300548  0.02095058  0.00604791  0.07501070  0.10483977  0.00873665     11.62
  25  -152.10139370  -152.10155829    -0.00016459  0.00583683  0.00954584  0.00275565  0.03490659  0.07828507  0.00652376     12.18
  26  -152.10155829  -152.10166392    -0.00010563  0.00422851  0.00704742  0.00203441  0.03490659  0.08239097  0.00686591     12.67
  27  -152.10166392  -152.10176112    -0.00009719  0.00255630  0.00547266  0.00157982  0.03490659  0.08101676  0.00675140     13.15
  28  -152.10176112  -152.09563749     0.00612362  0.00195354  0.00328829  0.00094925  0.03490659  0.07611764  0.00634314     13.64
  29  -152.09563749  -152.09566226    -0.00002476  0.01523724  0.02026848  0.00585100  0.06238859  0.09161166  0.00763431     14.13
  30  -152.09566226  -152.09477520     0.00088705  0.01687645  0.02394038  0.00691099  0.14772001  0.16703964  0.01391997     14.61
  31  -152.09477520  -152.09544585    -0.00067065  0.01855298  0.03128433  0.00903101  0.03490659  0.08192115  0.00682676     15.10
  32  -152.09544585  -152.09534474     0.00010110  0.01781908  0.02776990  0.00801648  0.20347771  0.22502117  0.01875176     15.57
  33  -152.09534474  -152.09664723    -0.00130249  0.03552091  0.04710501  0.01359804  0.04317148  0.09241226  0.00770102     16.04
  34  -152.09664723  -152.09746797    -0.00082074  0.02198907  0.02876950  0.00830504  0.03490659  0.07719136  0.00643261     16.56
  35  -152.09746797  -152.09804987    -0.00058190  0.01333259  0.01897973  0.00547898  0.03490659  0.06527128  0.00543927     17.03
  36  -152.09804987  -152.09863423    -0.00058435  0.01185807  0.01787208  0.00515923  0.04543035  0.08802682  0.00733557     17.52
  37  -152.09863423  -152.09908443    -0.00045020  0.01028314  0.01418228  0.00409407  0.04575681  0.08564883  0.00713740     17.99
  38  -152.09908443  -152.09955415    -0.00046972  0.00930249  0.01287388  0.00371637  0.03490659  0.07603917  0.00633660     18.47
  39  -152.09955415  -152.09990999    -0.00035585  0.00721726  0.00954197  0.00275453  0.03490659  0.07817677  0.00651473     18.95
  40  -152.09990999  -152.10020222    -0.00029223  0.00501662  0.00791644  0.00228528  0.03490659  0.07593673  0.00632806     19.41
  41  -152.10020222  -152.10059656    -0.00039434  0.00549725  0.00911263  0.00263059  0.08202884  0.11048955  0.00920746     19.87
  42  -152.10059656  -152.10084511    -0.00024854  0.00710994  0.01005843  0.00290362  0.08128175  0.11255863  0.00937989     20.36
  43  -152.10084511  -152.10103404    -0.00018893  0.00411640  0.00676691  0.00195344  0.05021441  0.09000020  0.00750002     20.83
  44  -152.10103404  -152.10131050    -0.00027646  0.00616307  0.00863929  0.00249395  0.03490659  0.07438064  0.00619839     21.28
  45  -152.10131050  -152.10149907    -0.00018857  0.00459045  0.00590586  0.00170488  0.03490659  0.07978767  0.00664897     21.74
  46  -152.10149907  -152.10165057    -0.00015150  0.00193297  0.00335150  0.00096749  0.03490659  0.07277091  0.00606424     22.22
  47  -152.10165057  -152.10168510    -0.00003453  0.00186344  0.00248718  0.00071799  0.03490659  0.06423600  0.00535300     22.71
  48  -152.10168510  -152.10171098    -0.00002589  0.00265897  0.00472258  0.00136329  0.03490659  0.07656385  0.00638032     23.21
  49  -152.10171098  -152.10175992    -0.00004893  0.00347388  0.00584935  0.00168856  0.03490659  0.07006191  0.00583849     23.70
  50  -152.10175992  -152.10162992     0.00012999  0.00340055  0.00533916  0.00154128  0.03490659  0.07114050  0.00592837     24.17
  51  -152.10162992  -152.10156038     0.00006955  0.00639854  0.01115794  0.00322102  0.03490659  0.06695616  0.00557968     24.62
  52  -152.10156038  -152.10171442    -0.00015404  0.00766912  0.01352731  0.00390500  0.03521823  0.08164489  0.00680374     25.07
  53  -152.10171442  -152.10180645    -0.00009204  0.00598967  0.01048326  0.00302626  0.03490659  0.07869460  0.00655788     25.55
  54  -152.10180645  -152.10177990     0.00002655  0.00465303  0.00807115  0.00232994  0.03490659  0.06586858  0.00548905     26.03
  55  -152.10177990  -152.10171726     0.00006264  0.00556272  0.01027799  0.00296700  0.03490659  0.07920923  0.00660077     26.52
  56  -152.10171726  -152.10181906    -0.00010180  0.00654144  0.01275393  0.00368174  0.03490659  0.07069613  0.00589134     27.01
  57  -152.10181906  -152.10177906     0.00004001  0.00521471  0.01052700  0.00303888  0.03490659  0.07562642  0.00630220     27.50
  58  -152.10177906  -152.10187858    -0.00009953  0.00604739  0.01207956  0.00348707  0.03490659  0.07526661  0.00627222     27.99
  59  -152.10187858  -152.10181182     0.00006676  0.00465248  0.00918226  0.00265069  0.03490659  0.05813783  0.00484482     28.47
  60  -152.10181182  -152.10191467    -0.00010285  0.00641275  0.01245728  0.00359611  0.03490659  0.07897743  0.00658145     28.95
  61  -152.10191467  -152.10186390     0.00005077  0.00545506  0.01013377  0.00292537  0.03490659  0.07286119  0.00607177     29.41
  62  -152.10186390  -152.10187205    -0.00000815  0.00642553  0.01232908  0.00355910  0.03490659  0.05638372  0.00469864     29.90
  63  -152.10187205  -152.10189662    -0.00002457  0.00655099  0.01264205  0.00364945  0.03490659  0.05923870  0.00493656     30.34
  64  -152.10189662  -152.10206684    -0.00017022  0.00624804  0.01231121  0.00355394  0.03490659  0.07083719  0.00590310     30.84
  65  -152.10206684  -152.10217690    -0.00011006  0.00262319  0.00529866  0.00152959  0.03490659  0.07729988  0.00644166     31.30
  66  -152.10217690  -152.10220037    -0.00002347  0.00129845  0.00225597  0.00065124  0.03490659  0.06537281  0.00544773     31.80
  67  -152.10220037  -152.10223708    -0.00003671  0.00132571  0.00259570  0.00074931  0.03490659  0.07215329  0.00601277     32.28
  68  -152.10223708  -152.10224460    -0.00000752  0.00136901  0.00229523  0.00066257  0.03490659  0.05607732  0.00467311     32.76
  69  -152.10224460  -152.10227561    -0.00003101  0.00267984  0.00400463  0.00115604  0.03490659  0.07097093  0.00591424     33.25
  70  -152.10227561  -152.10226910     0.00000651  0.00180766  0.00314316  0.00090735  0.03490659  0.08071836  0.00672653     33.74
  71  -152.10226910  -152.10231064    -0.00004155  0.00280385  0.00497954  0.00143747  0.04098852  0.07708952  0.00642413     34.22
  72  -152.10231064  -152.10235327    -0.00004263  0.00217973  0.00334259  0.00096492  0.03490659  0.06544826  0.00545402     34.71
  73  -152.10235327  -152.10238472    -0.00003145  0.00141159  0.00223040  0.00064386  0.03490659  0.07639169  0.00636597     35.19
  74  -152.10238472  -152.10241662    -0.00003190  0.00281953  0.00416551  0.00120248  0.03490659  0.07093045  0.00591087     35.66
  75  -152.10241662  -152.10243985    -0.00002323  0.00312150  0.00354728  0.00102401  0.03490659  0.07198919  0.00599910     36.14
  76  -152.10243985  -152.10246130    -0.00002145  0.00217237  0.00355527  0.00102632  0.03490659  0.06858580  0.00571548     36.63
  77  -152.10246130  -152.10247022    -0.00000891  0.00213914  0.00344165  0.00099352  0.03490659  0.06762259  0.00563522     37.11
  78  -152.10247022  -152.10249685    -0.00002664  0.00231931  0.00366703  0.00105858  0.03490659  0.05166859  0.00430572     37.60
  79  -152.10249685  -152.10251124    -0.00001438  0.00275467  0.00371654  0.00107287  0.03490659  0.07009933  0.00584161     38.08
  80  -152.10251124  -152.10252626    -0.00001502  0.00309569  0.00500420  0.00144459  0.03490659  0.05669995  0.00472500     38.56
  81  -152.10252626  -152.10256634    -0.00004008  0.00309375  0.00561530  0.00162100  0.03490659  0.07565806  0.00630484     39.02
  82  -152.10256634  -152.10255573     0.00001061  0.00301034  0.00518797  0.00149764  0.03490659  0.06385250  0.00532104     39.53
  83  -152.10255573  -152.10251974     0.00003599  0.00311402  0.00652510  0.00188364  0.03490659  0.05338885  0.00444907     39.97
  84  -152.10251974  -152.10256447    -0.00004473  0.00470759  0.00875059  0.00252608  0.03490659  0.07498054  0.00624838     40.42
  85  -152.10256447  -152.10269665    -0.00013218  0.00476130  0.00848047  0.00244810  0.03490659  0.07173266  0.00597772     40.87
  86  -152.10269665  -152.10267024     0.00002641  0.00177654  0.00299069  0.00086334  0.03490659  0.06489855  0.00540821     41.34
  87  -152.10267024  -152.10272921    -0.00005897  0.00341380  0.00598813  0.00172863  0.03490659  0.07771638  0.00647637     41.79
  88  -152.10272921  -152.10275872    -0.00002951  0.00216131  0.00409052  0.00118083  0.03490659  0.05445410  0.00453784     42.25
  89  -152.10275872  -152.10277924    -0.00002052  0.00191237  0.00305489  0.00088187  0.03490659  0.06384741  0.00532062     42.70
  90  -152.10277924  -152.10278075    -0.00000151  0.00117175  0.00242953  0.00070134  0.03490659  0.06787162  0.00565597     43.15
  91  -152.10278075  -152.10281799    -0.00003724  0.00168428  0.00334376  0.00096526  0.03490659  0.06243479  0.00520290     43.61
  92  -152.10281799  -152.10283781    -0.00001982  0.00124691  0.00231821  0.00066921  0.03490659  0.06658670  0.00554889     44.07
  93  -152.10283781  -152.10285111    -0.00001330  0.00091096  0.00199972  0.00057727  0.03490659  0.05144975  0.00428748     44.51
  94  -152.10285111  -152.10285838    -0.00000727  0.00084035  0.00146749  0.00042363  0.03490659  0.05927915  0.00493993     44.97
  95  -152.10285838  -152.10286596    -0.00000758  0.00090304  0.00182370  0.00052646  0.03490659  0.06725120  0.00560427     45.42
  96  -152.10286596  -152.10288274    -0.00001678  0.00114184  0.00243480  0.00070287  0.03490659  0.06031323  0.00502610     45.87
  97  -152.10288274  -152.10289475    -0.00001200  0.00095140  0.00192384  0.00055537  0.03490659  0.06158177  0.00513181     46.33
  98  -152.10289475  -152.10290133    -0.00000658  0.00060427  0.00126935  0.00036643  0.03490659  0.05080758  0.00423397     46.77
  99  -152.10290133  -152.10289309     0.00000824  0.00051886  0.00093011  0.00026850  0.03490659  0.05332421  0.00444368     47.23
 100  -152.10289309  -152.10290217    -0.00000909  0.00174330  0.00308255  0.00088986  0.03490659  0.05230695  0.00435891     47.68
 ? Warning
 ? No convergence in max. number of iterations

 END OF GEOMETRY OPTIMIZATION.

 Optimized variables
 R1=                  0.94004926 ANG
 R2=                  0.94502125 ANG
 PHI=               105.48586094 DEGREE
 D1=                  2.03487862 ANG
 THETA=             176.29435061 DEGREE
 OMEGA=             180.00000000 DEGREE
 R3=                  0.94191723 ANG
 PHI1=              119.00759832 DEGREE
 THETA1=            -61.72247046 DEGREE
 R4=                  0.94182541 ANG
 PHI2=              112.09269150 DEGREE
 THETA2=           -117.86623427 DEGREE

 **********************************************************************************************************************************

 Geometry written to block  1 of record 700

 Recomputing wavefunction for reoriented structure

 Current geometry (xyz format, in Angstrom)

    6
 HF-SCF000/6-311G(D,P)  ENERGY=-152.10290217
 H          0.6807965085       -0.4524880868       -1.8527768754
 O         -0.0533168453        0.0349129264       -1.5253468219
 H          0.0144942706       -0.0088348438       -0.5837774165
 O          0.0510158778       -0.0303939363        1.4506592091
 H          0.0501450594        0.8412060790        1.8077596560
 H         -0.7089178243       -0.4516027823        1.8141409450

 **********************************************************************************************************************************


 **********************************************************************************************************************************
 DATASETS  * FILE   NREC   LENGTH (MB)   RECORD NAMES
              1      19       28.80       500      610      700      900      700(1)   950      970     1000      129      960   
                                          VAR    BASINP    GEOM    SYMINP    GEOM     ZMAT    AOBASIS   BASIS     P2S    ABASIS    
                                         1100     1400     1410     1200     1210     1080     1600     1650     1700   
                                           S        T        V       H0       H01     AOSYM     SMH    MOLCAS    OPER   

              2       5        0.55       700     1000      520     2100      700(1)
                                         GEOM     BASIS   MCVARS     RHF     GEOM   

 PROGRAMS   *        TOTAL      OPTG    HF-SCF       INT
 CPU TIMES  *        48.73     47.70      0.10      0.67
 REAL TIME  *        54.89 SEC
 DISK USED  *        29.64 MB (local),      210.61 MB (total)
 SF USED    *         0.01 MB
 GA USED    *         0.00 MB       (max)       0.00 MB       (current)
 **********************************************************************************************************************************


 PROGRAM * HESSIAN

 PROGRAM * MCKINLEY (Hessian of the energy)     Author: A. Bernhardsson, R. Lindh

 Orbitals from record         2100.2

 Number of closed-shell orbitals: 10 ( 10 )
 Number of occupied orbitals:     10 ( 10 )

 Number of electrons= 20     Singlet     Space symmetry=1      Wavefunction type: CLOSED          


 McKinley needed      0.70 seconds of CPU time

 Entering CPHF calculation

 CPHF needed 145 iterations for 18 perturbations.  Total CPU time:    0.68 sec


 HF-SCF hessian saved to record  5300.2

 PROGRAM * FREQUENCIES (Calculation of harmonic vibrational spectra for HF-SCF)


 Permanent Dipole Moment [debye]
     1-   3    0.000000    0.000000    0.000000

 Dipole Moment Norm    0.0000000 [debye]

 Dipole Moment Derivatives [debye/ang]
              1             2             3             4             5             6             7             8
    1    0.00000000    0.00000000    0.00000000    0.00000000    0.00000000    0.00000000    0.00000000    0.00000000
    2    0.00000000    0.00000000    0.00000000    0.00000000    0.00000000    0.00000000    0.00000000    0.00000000
    3    0.00000000    0.00000000    0.00000000    0.00000000    0.00000000    0.00000000    0.00000000    0.00000000
              9            10            11            12            13            14            15            16
    1    0.00000000    0.00000000    0.00000000    0.00000000    0.00000000    0.00000000    0.00000000    0.00000000
    2    0.00000000    0.00000000    0.00000000    0.00000000    0.00000000    0.00000000    0.00000000    0.00000000
    3    0.00000000    0.00000000    0.00000000    0.00000000    0.00000000    0.00000000    0.00000000    0.00000000
             17            18
    1    0.00000000    0.00000000
    2    0.00000000    0.00000000
    3    0.00000000    0.00000000

 Projecting out rotations and translations

 Force Constants (Second Derivatives of the Energy) in [a.u.]
                             H1X1        H1Y1        H1Z1        O1X2        O1Y2    
           H1X1          0.3833699
           H1Y1         -0.2543006   0.1691663
           H1Z1         -0.1687382   0.1120819   0.1337458
           O1X2         -0.3850410   0.2551252   0.1227376   0.4289132
           O1Y2          0.2551916  -0.1700595  -0.0815649  -0.2819855   0.1911058
           O1Z2          0.1749910  -0.1162367  -0.1168458  -0.1012630   0.0681337
           H2X3          0.0019452  -0.0007903   0.0468158  -0.0466323   0.0266357
           H2Y3         -0.0008559   0.0011921  -0.0310687   0.0266918  -0.0240279
           H2Z3         -0.0057809   0.0038121  -0.0162024  -0.0219120   0.0137743
           O2X4         -0.0004815  -0.0002861  -0.0009125   0.0038902   0.0005162
           O2Y4         -0.0003277  -0.0007661   0.0006302   0.0005645   0.0044408
           O2Z4         -0.0006343   0.0004115  -0.0009498   0.0020229  -0.0012539
           H3X5          0.0001285   0.0001243   0.0000087  -0.0005777  -0.0001536
           H3Y5          0.0001663   0.0002055  -0.0000957  -0.0002122  -0.0007268
           H3Z5          0.0000018  -0.0001544   0.0001554   0.0001391   0.0020228
           H4X6          0.0000790   0.0001275   0.0000885  -0.0005524  -0.0002044
           H4Y6          0.0001264   0.0002617   0.0000171  -0.0001839  -0.0007325
           H4Z6          0.0001606   0.0000856   0.0000969  -0.0017246  -0.0011120
                             O1Z2        H2X3        H2Y3        H2Z3        O2X4    
           O1Z2          0.7132852
           H2X3         -0.0738140   0.0488240
           H2Y3          0.0481598  -0.0251076   0.0278171
           H2Z3         -0.5897658   0.0268204  -0.0170027   0.6085576
           O2X4          0.0001137  -0.0055474  -0.0009319   0.0013509   0.4463929
           O2Y4         -0.0000654  -0.0009511  -0.0065526  -0.0008631   0.2091906
           O2Z4         -0.0068989  -0.0033240   0.0019966  -0.0012912  -0.2257126
           H3X5          0.0004943   0.0007661   0.0001034  -0.0012675  -0.0384656
           H3Y5          0.0008709   0.0001372   0.0007423  -0.0016099  -0.0270133
           H3Z5          0.0001090  -0.0000179  -0.0040434  -0.0006747   0.0155574
           H4X6         -0.0005220   0.0006444   0.0001000   0.0007890  -0.4057887
           H4Y6         -0.0008624   0.0000760   0.0008290   0.0018894  -0.1814756
           H4Z6          0.0001163   0.0035196   0.0019583  -0.0006235   0.2096030
                             O2Y4        O2Z4        H3X5        H3Y5        H3Z5    
           O2Y4          0.6820246
           O2Z4          0.1295016   0.2301242
           H3X5          0.0226399   0.0366221   0.0385736
           H3Y5         -0.5245471  -0.1947410   0.0215695   0.5463832
           H3Z5         -0.2281832  -0.1090194  -0.0183032   0.2083724   0.1015491
           H4X6         -0.2311162   0.1910259  -0.0004249   0.0053524   0.0026228
           H4Y6         -0.1545997   0.0640851  -0.0442835  -0.0220572   0.0219858
           H4Z6          0.0989799  -0.1119649  -0.0175545  -0.0127967   0.0078806
                             H4X6        H4Y6        H4Z6    
           H4X6          0.4060427
           H4Y6          0.2257407   0.1762988
           H4Z6         -0.1940041  -0.0871150   0.1044946


 Atomic Masses
     1-   6    1.007825   15.994910    1.007825   15.994910    1.007825    1.007825

 Mass weighted Second Derivative Matrix
                             H1X1        H1Y1        H1Z1        O1X2        O1Y2    
           H1X1          0.3803933
           H1Y1         -0.2523262   0.1678529
           H1Z1         -0.1674281   0.1112117   0.1327073
           O1X2         -0.0959011   0.0635433   0.0305699   0.0268156
           O1Y2          0.0635598  -0.0423562  -0.0203151  -0.0176297   0.0119479
           O1Z2          0.0435845  -0.0289507  -0.0291025  -0.0063310   0.0042597
           H2X3          0.0019301  -0.0007841   0.0464524  -0.0116146   0.0066341
           H2Y3         -0.0008492   0.0011828  -0.0308274   0.0066481  -0.0059846
           H2Z3         -0.0057360   0.0037825  -0.0160766  -0.0054576   0.0034307
           O2X4         -0.0001199  -0.0000712  -0.0002273   0.0002432   0.0000323
           O2Y4         -0.0000816  -0.0001908   0.0001570   0.0000353   0.0002776
           O2Z4         -0.0001580   0.0001025  -0.0002366   0.0001265  -0.0000784
           H3X5          0.0001275   0.0001233   0.0000087  -0.0001439  -0.0000383
           H3Y5          0.0001650   0.0002039  -0.0000950  -0.0000528  -0.0001810
           H3Z5          0.0000017  -0.0001532   0.0001542   0.0000346   0.0005038
           H4X6          0.0000784   0.0001265   0.0000878  -0.0001376  -0.0000509
           H4Y6          0.0001254   0.0002597   0.0000170  -0.0000458  -0.0001824
           H4Z6          0.0001593   0.0000849   0.0000961  -0.0004295  -0.0002770
                             O1Z2        H2X3        H2Y3        H2Z3        O2X4    
           O1Z2          0.0445945
           H2X3         -0.0183847   0.0484449
           H2Y3          0.0119950  -0.0249126   0.0276011
           H2Z3         -0.1468913   0.0266122  -0.0168707   0.6038326
           O2X4          0.0000071  -0.0013817  -0.0002321   0.0003365   0.0279084
           O2Y4         -0.0000041  -0.0002369  -0.0016320  -0.0002150   0.0130786
           O2Z4         -0.0004313  -0.0008279   0.0004973  -0.0003216  -0.0141115
           H3X5          0.0001231   0.0007601   0.0001026  -0.0012576  -0.0095805
           H3Y5          0.0002169   0.0001362   0.0007366  -0.0015974  -0.0067281
           H3Z5          0.0000271  -0.0000177  -0.0040120  -0.0006695   0.0038748
           H4X6         -0.0001300   0.0006394   0.0000993   0.0007829  -0.1010687
           H4Y6         -0.0002148   0.0000754   0.0008226   0.0018747  -0.0451996
           H4Z6          0.0000290   0.0034923   0.0019431  -0.0006186   0.0522052
                             O2Y4        O2Z4        H3X5        H3Y5        H3Z5    
           O2Y4          0.0426401
           O2Z4          0.0080964   0.0143873
           H3X5          0.0056389   0.0091214   0.0382741
           H3Y5         -0.1306475  -0.0485036   0.0214020   0.5421410
           H3Z5         -0.0568329  -0.0271531  -0.0181611   0.2067546   0.1007606
           H4X6         -0.0575635   0.0475783  -0.0004216   0.0053109   0.0026024
           H4Y6         -0.0385057   0.0159615  -0.0439397  -0.0218860   0.0218151
           H4Z6          0.0246526  -0.0278868  -0.0174182  -0.0126974   0.0078195
                             H4X6        H4Y6        H4Z6    
           H4X6          0.4028901
           H4Y6          0.2239880   0.1749299
           H4Z6         -0.1924978  -0.0864387   0.1036832


 Mass Weighted 2nd Derivative Matrix Eigenvalues
     1-  10    0.000000    0.000000    0.000000    0.000000    0.000000    0.000000    0.000194    0.000458    0.000981    0.001187
    11-  18    0.004958    0.013901    0.116686    0.119471    0.635802    0.647939    0.673571    0.676656

 Mass Weighted 2nd Derivative Matrix Eigenvectors
              1             2             3             4             5             6             7             8
    1    0.24911352   -0.03370568   -0.15617803   -0.25783700   -0.02198724   -0.09094292   -0.03508103    0.43730799
    2    0.07652368   -0.03566574   -0.29448848   -0.36693541    0.06866865    0.21649911   -0.03871863    0.65550977
    3    0.05799887    0.16269445   -0.02355647    0.00827060   -0.06494537   -0.03845841   -0.01765403    0.00685895
    4    0.85559567   -0.12479103   -0.09307224    0.16892850   -0.07228779   -0.33863661    0.08896269   -0.09798336
    5    0.24854073   -0.10171429   -0.27435518    0.28902942    0.13774730    0.81607176    0.14009667   -0.14668139
    6    0.00811756    0.60931612   -0.24552064    0.10843943   -0.02224502   -0.03106087    0.00405905    0.00712707
    7    0.14638551   -0.02109041   -0.03002033    0.01660141    0.06004085   -0.07436082   -0.20200866   -0.08828956
    8    0.06753812    0.00871504   -0.00586083   -0.00409948    0.03775290    0.16163541   -0.33834502   -0.12266132
    9    0.00720182    0.15380233   -0.05822271    0.02551693   -0.01106720   -0.01057097   -0.00016127    0.00237271
   10   -0.01156155    0.00339181   -0.09875135    0.02286744    0.89869688   -0.20333689   -0.07179030   -0.04203022
   11    0.30418083    0.32848181    0.63681289   -0.40653159    0.15738395    0.27391955   -0.11134844   -0.07263930
   12    0.03973933    0.61426271   -0.22532645    0.09829632   -0.05585486   -0.04770144   -0.00334517   -0.00981885
   13   -0.04750715    0.00265147    0.21148205    0.54237914    0.21398224   -0.04304837   -0.05592829    0.39975602
   14    0.07774873    0.09538047    0.19089489   -0.11475876    0.03947538    0.05248812    0.21080191   -0.00307429
   15    0.00646296    0.12264431   -0.13175707    0.05701154   -0.01397425    0.02775724   -0.58232373   -0.03969274
   16   -0.02080157    0.00574963   -0.13606210   -0.25296281    0.27455176   -0.04873339    0.22460646   -0.19098732
   17    0.06181823    0.09383274    0.39552368    0.35198789    0.00421566    0.05557835    0.05173429    0.34395725
   18   -0.04429190    0.17761624   -0.01609938    0.00994428    0.04745463   -0.02242270    0.59729505    0.04118460
              9            10            11            12            13            14            15            16
    1   -0.12340058   -0.09354717    0.14774813    0.03416366   -0.03456080    0.18173674    0.29693972   -0.08047900
    2    0.08186207    0.07748487   -0.10283435    0.04624512    0.02294844   -0.11987581   -0.19717518    0.05344876
    3   -0.24639130   -0.41179303    0.48559770    0.00815950   -0.11269539    0.59413729   -0.16262542    0.04191244
    4   -0.02450660   -0.02960674   -0.03702764   -0.07240153    0.03557022   -0.18625181   -0.08409594    0.02138877
    5    0.01142332    0.01186442    0.02860046   -0.10601881   -0.02358165    0.12343567    0.05554846   -0.01416333
    6    0.52694150   -0.43066162   -0.09879095   -0.00224427    0.02840155   -0.13190076   -0.17897756    0.02415923
    7    0.31667096    0.25240347   -0.40364027    0.48539915   -0.10730709    0.58497773    0.03723676   -0.00382313
    8   -0.19362202   -0.15743364    0.25344593    0.74432180    0.07149890   -0.38906881   -0.02353843    0.00241783
    9    0.09920893   -0.13342254    0.01430819   -0.00098070    0.00993658   -0.06642280    0.87861031   -0.14021392
   10    0.07544882    0.08024949    0.21741054   -0.08278503    0.17555233    0.02310166    0.02357116    0.12769420
   11   -0.04181569   -0.04686691   -0.13608920   -0.13017040   -0.10408605   -0.01286045   -0.01431504   -0.07767560
   12   -0.29923602    0.62873976    0.15323703   -0.00244349   -0.17275108   -0.03802330   -0.02268029   -0.12244042
   13   -0.19735306   -0.17609142   -0.23719296    0.04266009   -0.55674546   -0.09722268    0.00304287    0.02817351
   14    0.11507545    0.10350847    0.13756886    0.07780605   -0.14575528   -0.03223824    0.11332341    0.64112086
   15   -0.38008856   -0.12289357   -0.37633856   -0.26844790    0.34043066    0.07624709    0.04350925    0.24425468
   16   -0.19886130   -0.18451587   -0.22552564    0.05601046   -0.14245824   -0.01953302   -0.09610028   -0.53778923
   17    0.11776184    0.11588349    0.14003398    0.07255934    0.55991144    0.10067247   -0.05687583   -0.33111884
   18   -0.37986388   -0.12099603   -0.34047000    0.27994423    0.33738889    0.07298315    0.04387187    0.24558014
             17            18
    1    0.68473589   -0.00066438
    2   -0.45461639    0.00101426
    3   -0.32160621    0.00044020
    4   -0.16184506    0.00015605
    5    0.10758722   -0.00023779
    6    0.17714103   -0.00027229
    7   -0.03964644   -0.00027445
    8    0.02579843   -0.00058584
    9   -0.38475353    0.00063446
   10    0.00463729   -0.13845319
   11   -0.00327398   -0.23375301
   12   -0.00478417    0.00201153
   13    0.00198849   -0.00056265
   14    0.02706875    0.62502556
   15    0.01020036    0.25697265
   16   -0.02079245    0.55245062
   17   -0.01381467    0.30672030
   18    0.00952285   -0.26497607

   Low Vibration      Wavenumber
        Nr             [1/cm] 
        1                0.00
        2                0.00
        3                0.00
        4                0.00
        5                0.00
        6                0.00

     Vibration        Wavenumber
        Nr             [1/cm] 
        1               71.52
        2              110.06
        3              161.04
        4              177.07
        5              361.95
        6              606.08
        7             1755.96
        8             1776.79
        9             4098.88
       10             4137.82
       11             4218.87
       12             4228.52

 FREQUENCIES * CALCULATION OF NORMAL MODES FOR HF-SCF


 Atomic Coordinates

  Nr  Atom  Charge       X              Y              Z

   1   H1    1.00    1.286518948   -0.855078559   -3.501240865
   2   O1    8.00   -0.100754235    0.065975869   -2.882487738
   3   H2    1.00    0.027390202   -0.016695435   -1.103179435
   4   O2    8.00    0.096406037   -0.057436215    2.741348605
   5   H3    1.00    0.094760429    1.589649104    3.416170649
   6   H4    1.00   -1.339660533   -0.853405576    3.428229538

 Gradient norm at reference geometry: 0.25865D-02

 ?WARNING: GRADIENT NORM NOT ZERO!

 Normal Modes

                              1 A         2 A         3 A         4 A         5 A  
 Wavenumbers [cm-1]           71.52      110.06      161.04      177.07      361.95
 Intensities [km/mol]          0.00        0.00        0.00        0.00        0.00
 Intensities [relative]        0.00        0.00        0.00        0.00        0.00
           H1X1            -0.03494     0.43561    -0.12292    -0.09318     0.14717
           H1Y1            -0.03857     0.65296     0.08154     0.07718    -0.10243
           H1Z1            -0.01759     0.00683    -0.24543    -0.41019     0.48371
           O1X2             0.02224    -0.02450    -0.00613    -0.00740    -0.00926
           O1Y2             0.03503    -0.03668     0.00286     0.00297     0.00715
           O1Z2             0.00101     0.00178     0.13176    -0.10768    -0.02470
           H2X3            -0.20122    -0.08795     0.31544     0.25142    -0.40207
           H2Y3            -0.33703    -0.12218    -0.19287    -0.15682     0.25246
           H2Z3            -0.00016     0.00236     0.09882    -0.13290     0.01425
           O2X4            -0.01795    -0.01051     0.01887     0.02007     0.05436
           O2Y4            -0.02784    -0.01816    -0.01046    -0.01172    -0.03403
           O2Z4            -0.00084    -0.00246    -0.07482     0.15721     0.03832
           H3X5            -0.05571     0.39820    -0.19659    -0.17541    -0.23627
           H3Y5             0.20998    -0.00306     0.11463     0.10311     0.13703
           H3Z5            -0.58006    -0.03954    -0.37861    -0.12242    -0.37487
           H4X6             0.22373    -0.19024    -0.19809    -0.18380    -0.22465
           H4Y6             0.05153     0.34262     0.11730     0.11543     0.13949
           H4Z6             0.59497     0.04102    -0.37839    -0.12053    -0.33915

                              6 A         7 A         8 A         9 A        10 A  
 Wavenumbers [cm-1]          606.08     1755.96     1776.79     4098.88     4137.82
 Intensities [km/mol]          0.00        0.00        0.00        0.00        0.00
 Intensities [relative]        0.00        0.00        0.00        0.00        0.00
           H1X1             0.03403    -0.03443     0.18103     0.29578    -0.08017
           H1Y1             0.04607     0.02286    -0.11941    -0.19641     0.05324
           H1Z1             0.00813    -0.11226     0.59183    -0.16199     0.04175
           O1X2            -0.01810     0.00889    -0.04657    -0.02103     0.00535
           O1Y2            -0.02651    -0.00590     0.03086     0.01389    -0.00354
           O1Z2            -0.00056     0.00710    -0.03298    -0.04475     0.00604
           H2X3             0.48351    -0.10689     0.58270     0.03709    -0.00381
           H2Y3             0.74143     0.07122    -0.38756    -0.02345     0.00241
           H2Z3            -0.00098     0.00990    -0.06616     0.87519    -0.13967
           O2X4            -0.02070     0.04390     0.00578     0.00589     0.03193
           O2Y4            -0.03255    -0.02603    -0.00322    -0.00358    -0.01942
           O2Z4            -0.00061    -0.04319    -0.00951    -0.00567    -0.03061
           H3X5             0.04249    -0.55458    -0.09684     0.00303     0.02806
           H3Y5             0.07750    -0.14519    -0.03211     0.11288     0.63863
           H3Z5            -0.26740     0.33911     0.07595     0.04334     0.24330
           H4X6             0.05579    -0.14190    -0.01946    -0.09573    -0.53570
           H4Y6             0.07228     0.55773     0.10028    -0.05665    -0.32983
           H4Z6             0.27886     0.33608     0.07270     0.04370     0.24462

                             11 A        12 A  
 Wavenumbers [cm-1]         4218.87     4228.52
 Intensities [km/mol]          0.00        0.00
 Intensities [relative]        0.00        0.00
           H1X1             0.68207    -0.00066
           H1Y1            -0.45285     0.00101
           H1Z1            -0.32036     0.00044
           O1X2            -0.04047     0.00004
           O1Y2             0.02690    -0.00006
           O1Z2             0.04429    -0.00007
           H2X3            -0.03949    -0.00027
           H2Y3             0.02570    -0.00058
           H2Z3            -0.38326     0.00063
           O2X4             0.00116    -0.03462
           O2Y4            -0.00082    -0.05845
           O2Z4            -0.00120     0.00050
           H3X5             0.00198    -0.00056
           H3Y5             0.02696     0.62259
           H3Z5             0.01016     0.25597
           H4X6            -0.02071     0.55030
           H4Y6            -0.01376     0.30553
           H4Z6             0.00949    -0.26395


 Normal Modes of low/zero frequencies

                                  1           2           3           4           5
 Wavenumbers [cm-1]            0.00        0.00        0.00        0.00        0.00
 Intensities [km/mol]          0.00        0.00        0.00        0.00        0.00
 Intensities [relative]        0.00        0.00        0.00        0.00        0.00
           H1X1             0.24814    -0.03357    -0.15557    -0.25683    -0.02190
           H1Y1             0.07623    -0.03553    -0.29334    -0.36551     0.06840
           H1Z1             0.05777     0.16206    -0.02346     0.00824    -0.06469
           O1X2             0.21393    -0.03120    -0.02327     0.04224    -0.01807
           O1Y2             0.06215    -0.02543    -0.06860     0.07227     0.03444
           O1Z2             0.00203     0.15235    -0.06139     0.02711    -0.00556
           H2X3             0.14582    -0.02101    -0.02990     0.01654     0.05981
           H2Y3             0.06728     0.00868    -0.00584    -0.00408     0.03761
           H2Z3             0.00717     0.15320    -0.05800     0.02542    -0.01102
           O2X4            -0.00289     0.00085    -0.02469     0.00572     0.22471
           O2Y4             0.07606     0.08213     0.15923    -0.10165     0.03935
           O2Z4             0.00994     0.15359    -0.05634     0.02458    -0.01397
           H3X5            -0.04732     0.00264     0.21066     0.54027     0.21315
           H3Y5             0.07745     0.09501     0.19015    -0.11431     0.03932
           H3Z5             0.00644     0.12217    -0.13124     0.05679    -0.01392
           H4X6            -0.02072     0.00573    -0.13553    -0.25198     0.27348
           H4Y6             0.06158     0.09347     0.39399     0.35062     0.00420
           H4Z6            -0.04412     0.17693    -0.01604     0.00991     0.04727

                                  6
 Wavenumbers [cm-1]            0.00
 Intensities [km/mol]          0.00
 Intensities [relative]        0.00
           H1X1            -0.09059
           H1Y1             0.21566
           H1Z1            -0.03831
           O1X2            -0.08467
           O1Y2             0.20405
           O1Z2            -0.00777
           H2X3            -0.07407
           H2Y3             0.16101
           H2Z3            -0.01053
           O2X4            -0.05084
           O2Y4             0.06849
           O2Z4            -0.01193
           H3X5            -0.04288
           H3Y5             0.05228
           H3Z5             0.02765
           H4X6            -0.04854
           H4Y6             0.05536
           H4Z6            -0.02234


 Frequencies dumped to record   5400.2
 Frequency information read from record  5400.2

 Zero point energy:  0.04944657 [H]    10852.27 [1/CM]      129.82 [KJ/MOL]


 **********************************************************************************************************************************
 DATASETS  * FILE   NREC   LENGTH (MB)   RECORD NAMES
              1      19       28.80       500      610      700      900      700(1)   950      970     1000      129      960   
                                          VAR    BASINP    GEOM    SYMINP    GEOM     ZMAT    AOBASIS   BASIS     P2S    ABASIS    
                                         1100     1400     1410     1200     1210     1080     1600     1650     1700   
                                           S        T        V       H0       H01     AOSYM     SMH    MOLCAS    OPER   

              2       8        0.56       700     1000      520     2100      700(1)  5300     5450     5400   
                                         GEOM     BASIS   MCVARS     RHF     GEOM     HESS     NMOD     FREQ   

              4       5        1.06      4100     4000     4200     4300     4400   

 PROGRAMS   *        TOTAL      FREQ      OPTG    HF-SCF       INT
 CPU TIMES  *        50.12      1.39     47.70      0.10      0.67
 REAL TIME  *        56.35 SEC
 DISK USED  *        29.64 MB (local),      210.61 MB (total)
 SF USED    *         1.06 MB
 GA USED    *         0.00 MB       (max)       0.00 MB       (current)
 **********************************************************************************************************************************

 Dump information in style MOLDEN to h2o_dimer.molden                                                                

 Molecular orbitals read from record     2100.2  Type=RHF/CANONICAL  
 Occupation numbers read from record     2100.2  Type=RHF/RHF  
 Orbital energies read from record       2100.2  Type=RHF/CANONICAL  
 Redundancy group numbers read from rec  2100.2  Type=RHF/RHF  

 DUMP ORBITAL  1.1 AS ORBITAL    1  occ=    2.0000  eig=  -20.5725  GROUP=   2
 DUMP ORBITAL  2.1 AS ORBITAL    2  occ=    2.0000  eig=  -20.5091  GROUP=   2
 DUMP ORBITAL  3.1 AS ORBITAL    3  occ=    2.0000  eig=   -1.3787  GROUP=   2
 DUMP ORBITAL  4.1 AS ORBITAL    4  occ=    2.0000  eig=   -1.3184  GROUP=   2
 DUMP ORBITAL  5.1 AS ORBITAL    5  occ=    2.0000  eig=   -0.7453  GROUP=   2
 DUMP ORBITAL  6.1 AS ORBITAL    6  occ=    2.0000  eig=   -0.6920  GROUP=   2
 DUMP ORBITAL  7.1 AS ORBITAL    7  occ=    2.0000  eig=   -0.6054  GROUP=   2
 DUMP ORBITAL  8.1 AS ORBITAL    8  occ=    2.0000  eig=   -0.5478  GROUP=   2
 DUMP ORBITAL  9.1 AS ORBITAL    9  occ=    2.0000  eig=   -0.5242  GROUP=   2
 DUMP ORBITAL 10.1 AS ORBITAL   10  occ=    2.0000  eig=   -0.4716  GROUP=   2

 Total charge:      20.000000
 Frequency information read from record  5400.2

 **********************************************************************************************************************************

 HF/6-311G(D,P)//HF/6-311G(D,P) energy=   -152.102902173744

    OPTG(HF-SCF)          HF-SCF
   -152.10290217   -152.03738353
 **********************************************************************************************************************************
 Molpro calculation terminated with 1 warning(s)
