
 Working directory              : /tmp/koe/molpro.7P7onLFFpj/
 Global scratch directory       : /tmp/koe/molpro.7P7onLFFpj/
 Wavefunction directory         : /home/koe/wfu/
 Main file repository           : /tmp/koe/molpro.7P7onLFFpj/

 id        : liedlgroup

 Nodes     nprocs
 zh2-c724    10
 GA implementation: MPI file
 GA implementation (serial work in mppx): MPI file

 Using customized tuning parameters: mindgm=1; mindgv=20; mindgc=4; mindgr=1; noblas=0; minvec=7
 default implementation of scratch files=sf  


 Variables initialized (1025), CPU time= 0.00 sec
 ***,water dimer
 memory, 200, m
 gthresh,optgrad=1.d-7,twoint=1.d-14,prefac=1.d-16
 orient,mass
 geometry={
 H1
 O1,H1,r1
 H2,O1,r2,H1,phi
 O2,H2,d1,O1,theta,H1,omega
 H3,O2,r3,H1,phi1,H2,theta1
 H4,O2,r4,H2,phi2,H1,theta2
 }
 
 r1=0.9656 ANG
 r2=0.9724 ANG
 phi=104.27 DEGREE
 d1=1.9601 ANG
 r3=0.9671 ANG
 r4=r3
 theta=phi
 phi1=110.44 DEGREE
 phi2=phi1
 omega=180.0 DEGREE
 theta1=57.40 DEGREE
 theta2=-theta1
 
 mass,iso
 basis=6-311g(d,p)
 
 {hf
 start,atden}
 
 
 optg
 {frequencies, symm=auto, print=0,analytical}
 put,molden, h2o_dimer.molden
 Commands initialized (840), CPU time= 0.01 sec, 684 directives.
 Default parameters read. Elapsed time= 0.13 sec

 Checking input...
 Passed
1


                                         ***  PROGRAM SYSTEM MOLPRO  ***
                                       Copyright, TTI GmbH Stuttgart, 2015
                                    Version 2022.3 linked Wed Nov 30 12:40:34 2022


 **********************************************************************************************************************************
 LABEL *   water                                                                         
  (6 PROC) 64 bit mpp version                                                            DATE: 22-Feb-24          TIME: 10:04:39  
 **********************************************************************************************************************************

 SHA1:             e31ec9a5ea85254ab76f59d122cbdd51c71cf98b
 **********************************************************************************************************************************

 Memory per process:       200 MW
 Total memory per node:   2000 MW

 GA preallocation disabled
 GA check disabled

 Variable memory set to 200.0 MW


 THRESHOLDS:

 ZERO    =  1.00D-12  ONEINT  =  1.00D-12  TWOINT  =  1.00D-14  PREFAC  =  1.00D-16  XXXXXX  =  1.00D-09  EORDER  =  1.00D-04
 ENERGY  =  0.00D+00  ETEST   =  0.00D+00  EDENS   =  0.00D+00  THRDEDEF=  1.00D-06  GRADIENT=  1.00D-05  STEP    =  1.00D-03
 ORBITAL =  1.00D-05  CIVEC   =  1.00D-05  COEFF   =  1.00D-04  PRINTCI =  5.00D-02  PUNCHCI =  9.90D+01  OPTGRAD =  1.00D-07
 OPTENERG=  1.00D-06  OPTSTEP =  3.00D-04  THRGRAD =  1.00D-10  COMPRESS=  1.00D-11  VARMIN  =  1.00D-07  VARMAX  =  1.00D-03
 THRDOUB =  0.00D+00  THRDIV  =  1.00D-05  THRRED  =  1.00D-07  THRPSP  =  1.00D+00  THRDC   =  1.00D-10  THRCS   =  1.00D-10
 THRNRM  =  1.00D-08  THREQ   =  0.00D+00  THRDE   =  1.00D+00  THRREF  =  1.00D-05  SPARFAC =  1.00D+00  THRDLP  =  1.00D-07
 THRDIA  =  1.00D-10  THRDLS  =  1.00D-07  THRGPS  =  0.00D+00  THRKEX  =  0.00D+00  THRDIS  =  2.00D-01  THRVAR  =  1.00D-10
 THRLOC  =  1.00D-06  THRGAP  =  1.00D-06  THRLOCT = -1.00D+00  THRGAPT = -1.00D+00  THRORB  =  1.00D-06  THRMLTP =  0.00D+00
 THRCPQCI=  1.00D-10  KEXTA   =  0.00D+00  THRCOARS=  0.00D+00  SYMTOL  =  1.00D-06  GRADTOL =  1.00D-06  THROVL  =  1.00D-08
 THRORTH =  1.00D-08  THRDLOVL= -1.00D+00  GRID    =  1.00D-06  GRIDMAX =  1.00D-03  DTMAX   =  0.00D+00  THROCCDE=  1.00D-01
 THROCCDE=  1.00D-01  THRPRINT=  2.50D-01

 ZCENTRE=MASS

 SETTING R1             =         0.96560000  ANG                             
 SETTING R2             =         0.97240000  ANG                             
 SETTING PHI            =       104.27000000  DEGREE                          
 SETTING D1             =         1.96010000  ANG                             
 SETTING R3             =         0.96710000  ANG                             
 SETTING R4             =         0.96710000  ANG                             
 SETTING THETA          =       104.27000000  DEGREE                          
 SETTING PHI1           =       110.44000000  DEGREE                          
 SETTING PHI2           =       110.44000000  DEGREE                          
 SETTING OMEGA          =       180.00000000  DEGREE                          
 SETTING THETA1         =        57.40000000  DEGREE                          
 SETTING THETA2         =       -57.40000000  DEGREE                          


 Using masses of most abundant isotopes

 **********************************************************************************************************************************
 SETTING BASIS          =    6-311G(D,P)


 Recomputing integrals since basis changed


 Using spherical harmonics

 Library entry H      S 6-311G               selected for orbital group  1
 Library entry H      P 6-311G**             selected for orbital group  1
 Library entry O      S 6-311G               selected for orbital group  2
 Library entry O      P 6-311G               selected for orbital group  2
 Library entry O      D 6-311G*              selected for orbital group  2


 PROGRAM * SEWARD (Integral evaluation for generally contracted gaussian basis sets)     Author: Roland Lindh, 1990

 Geometry written to block  1 of record 700

 Orientation using atomic masses  
 Molecule type: Asymmetric top
 Rotational constants:       8.9894751      9.0343455    225.3615488 GHz

 Point group  C1  



 ATOMIC COORDINATES

 NR  ATOM    CHARGE       X              Y              Z

   1  H1      1.00   -0.279011361    0.499643667   -3.965074289
   2  O1      8.00    0.026904535   -0.107828307   -2.271854077
   3  H2      1.00   -0.459485155    1.297037261   -1.191835490
   4  O2      8.00    0.161502571    0.063911934    2.245282300
   5  H3      1.00   -1.464150524    0.367137925    3.023266960
   6  H4      1.00   -0.787509683   -1.466834323    2.555356091

 Bond lengths in Bohr (Angstrom)

 1-2  1.824719546  2-3  1.837569684  4-5  1.827554135  4-6  1.827554135
     ( 0.965600000)     ( 0.972400000)     ( 0.967100000)     ( 0.967100000)

 Bond angles

  1-2-3  104.27000000   5-4-6   66.72369122

 NUCLEAR CHARGE:                   20
 NUMBER OF PRIMITIVE AOS:          96
 NUMBER OF SYMMETRY AOS:           94
 NUMBER OF CONTRACTIONS:           60   (   60A   )
 NUMBER OF INNER CORE ORBITALS:     0   (    0A   )
 NUMBER OF OUTER CORE ORBITALS:     2   (    2A   )
 NUMBER OF VALENCE ORBITALS:       12   (   12A   )


 NUCLEAR REPULSION ENERGY   39.68029193


 Eigenvalues of metric

         1 0.150E-01 0.196E-01 0.293E-01 0.373E-01 0.778E-01 0.828E-01 0.901E-01 0.908E-01


 Contracted 2-electron integrals neglected if value below      1.0D-14
 AO integral compression algorithm  1   Integral accuracy      1.0D-14

     12.321 MB (compressed) written to integral file ( 75.5%)

     Node minimum: 1.049 MB, node maximum: 1.835 MB


 NUMBER OF SORTED TWO-ELECTRON INTEGRALS:     168360.     BUFFER LENGTH:  32768
 NUMBER OF SEGMENTS:   1  SEGMENT LENGTH:     168360      RECORD LENGTH: 524288

 Memory used in sort:       0.73 MW

 SORT1 READ     2081117. AND WROTE      157160. INTEGRALS IN      1 RECORDS. CPU TIME:     0.02 SEC, REAL TIME:     0.04 SEC
 SORT2 READ     1544502. AND WROTE     1675365. INTEGRALS IN     40 RECORDS. CPU TIME:     0.02 SEC, REAL TIME:     0.01 SEC

 Node minimum:      166713.  Node maximum:      168360. integrals

 OPERATOR DM      FOR CENTER  0  COORDINATES:    0.000000    0.000000    0.000000


 **********************************************************************************************************************************
 DATASETS  * FILE   NREC   LENGTH (MB)   RECORD NAMES
              1      18       28.76       500      610      700      900      950      970     1000      129      960     1100   
                                          VAR    BASINP    GEOM    SYMINP    ZMAT    AOBASIS   BASIS     P2S    ABASIS      S 
                                         1400     1410     1200     1210     1080     1600     1650     1700   
                                           T        V       H0       H01     AOSYM     SMH    MOLCAS    OPER   

 PROGRAMS   *        TOTAL       INT
 CPU TIMES  *         0.71      0.48
 REAL TIME  *         0.88 SEC
 DISK USED  *        29.09 MB (local),      339.85 MB (total)
 GA USED    *         0.00 MB       (max)       0.00 MB       (current)
 **********************************************************************************************************************************


 Program * Restricted Hartree-Fock

 Orbital guess generated from atomic densities.

 Initial occupancy:  10

 NELEC=   20   SYM=1   MS2= 0   THRE=1.0D-08   THRD=1.0D-06   THRG=1.0D-06  HFMA2=F  DIIS_START=2   DIIS_MAX=10   DIIS_INCORE=F

 Level shifts:    0.00 (CLOSED)    0.00 (OPEN)    0.30 (GAP_MIN)

 ITER           ETOT              DE          GRAD        DDIFF     DIIS  NEXP   TIME(IT)  TIME(TOT)  DIAG
   1     -151.94629021    -151.94629021     0.00D+00     0.64D-01     0     0       0.03      0.15    start
   2     -152.01350543      -0.06721522     0.15D-01     0.13D-01     1     0       0.09      0.24    diag
   3     -152.03687884      -0.02337341     0.87D-02     0.43D-02     2     0       0.09      0.33    diag
   4     -152.03732409      -0.00044525     0.87D-03     0.59D-03     3     0       0.10      0.43    diag
   5     -152.03737928      -0.00005519     0.26D-03     0.27D-03     4     0       0.10      0.53    diag
   6     -152.03738290      -0.00000362     0.71D-04     0.65D-04     5     0       0.11      0.64    diag
   7     -152.03738349      -0.00000059     0.31D-04     0.27D-04     6     0       0.10      0.74    diag
   8     -152.03738352      -0.00000003     0.54D-05     0.84D-05     7     0       0.08      0.82    fixocc
   9     -152.03738353      -0.00000000     0.10D-05     0.14D-05     8     0       0.10      0.92    diag
  10     -152.03738353      -0.00000000     0.30D-06     0.45D-06     9     0       0.12      1.04    diag/orth
  11     -152.03738353      -0.00000000     0.62D-07     0.59D-07     0     0       0.08      1.12    diag

 Final occupancy:  10

 !RHF STATE 1.1 Energy               -152.037383526217
  RHF One-electron energy            -288.927630208155
  RHF Two-electron energy              97.209954756766
  RHF Kinetic energy                  152.176197095886
  RHF Nuclear energy                   39.680291925171
  RHF Virial quotient                  -0.999087810234

 !RHF STATE 1.1 Dipole moment          -1.13822381     0.30631394     0.22541995
 Dipole moment /Debye                  -2.89307635     0.77857239     0.57296037

 Orbital energies:

           1.1          2.1          3.1          4.1          5.1          6.1          7.1          8.1          9.1         10.1
    -20.562813   -20.519579    -1.380286    -1.309850    -0.694778    -0.643455    -0.619940    -0.544521    -0.504857    -0.473784

          11.1         12.1
      0.133171     0.185529


 HOMO     10.1    -0.473784 =     -12.8923eV
 LUMO     11.1     0.133171 =       3.6238eV
 LUMO-HOMO         0.606955 =      16.5161eV

 Orbitals saved in record  2100.2


 **********************************************************************************************************************************
 DATASETS  * FILE   NREC   LENGTH (MB)   RECORD NAMES
              1      18       28.76       500      610      700      900      950      970     1000      129      960     1100   
                                          VAR    BASINP    GEOM    SYMINP    ZMAT    AOBASIS   BASIS     P2S    ABASIS      S 
                                         1400     1410     1200     1210     1080     1600     1650     1700   
                                           T        V       H0       H01     AOSYM     SMH    MOLCAS    OPER   

              2       4        0.47       700     1000      520     2100   
                                         GEOM     BASIS   MCVARS     RHF  

 PROGRAMS   *        TOTAL    HF-SCF       INT
 CPU TIMES  *         1.84      1.13      0.48
 REAL TIME  *         1.45 SEC
 DISK USED  *        29.53 MB (local),      344.24 MB (total)
 GA USED    *         0.00 MB       (max)       0.00 MB       (current)
 **********************************************************************************************************************************


 PROGRAM * OPT (Geometry optimization)     Authors: F. Eckert and H.-J. Werner


 BFGS update of hessian

 *** Long output written to logfile /media/fileserver/01_users/Kemal/h2o-dimers/h2o_dimer.log ***


 Geometry optimization using default procedure for command HF-SCF

 Geometry written to block  1 of record 700

 Making model hessian for Z-matrix coordinates

 Entering Rational Function Geometry Optimization

 ITER.   ENERGY(OLD)    ENERGY(NEW)      DE          GRADMAX     GRADNORM    GRADRMS     STEPMAX     STEPLEN     STEPRMS   CPU-time
   1  -152.03738353  -152.05047122    -0.01308769  0.13935719  0.19868419  0.05735519  0.11329549  0.14223456  0.01185288      2.08
   2  -152.05047122  -152.06038407    -0.00991285  0.12612549  0.17695213  0.05108168  0.04465328  0.11399366  0.00949947      4.19
   3  -152.06038407  -152.06914586    -0.00876179  0.11338086  0.15998998  0.04618513  0.04799546  0.09536342  0.00794695      5.89
   4  -152.06914586  -152.07691838    -0.00777252  0.09805804  0.14026026  0.04048965  0.04467036  0.09134152  0.00761179      7.56
   5  -152.07691838  -152.08344167    -0.00652329  0.08240092  0.11921334  0.03441393  0.04557661  0.09080029  0.00756669      9.22
   6  -152.08344167  -152.08825607    -0.00481440  0.06707304  0.09897739  0.02857231  0.04712366  0.08681789  0.00723482     10.91
   7  -152.08825607  -152.09132623    -0.00307016  0.05428110  0.08236662  0.02377719  0.03490659  0.07388779  0.00615732     12.60
   8  -152.09132623  -152.09456769    -0.00324145  0.04359992  0.07397896  0.02135589  0.03545501  0.08264433  0.00688703     14.31
   9  -152.09456769  -152.09582571    -0.00125802  0.03569062  0.05444628  0.01571729  0.03490659  0.08187170  0.00682264     16.05
  10  -152.09582571  -152.09685750    -0.00103180  0.03234583  0.04791680  0.01383239  0.03490659  0.07350702  0.00612558     17.80
  11  -152.09685750  -152.09787021    -0.00101271  0.02817704  0.04176474  0.01205644  0.03490659  0.07894443  0.00657870     19.52
  12  -152.09787021  -152.09860915    -0.00073894  0.02472832  0.03689442  0.01065050  0.03490659  0.07805105  0.00650425     21.31
  13  -152.09860915  -152.09934444    -0.00073529  0.02042763  0.03259928  0.00941060  0.03490659  0.08535579  0.00711298     23.17
  14  -152.09934444  -152.09993985    -0.00059542  0.01655750  0.02755887  0.00795556  0.03490659  0.07755695  0.00646308     24.83
  15  -152.09993985  -152.10046853    -0.00052867  0.01289200  0.02327262  0.00671823  0.03490659  0.07880540  0.00656712     26.50
  16  -152.10046853  -152.10079077    -0.00032224  0.00745625  0.01202738  0.00347201  0.04136667  0.08469309  0.00705776     28.19
  17  -152.10079077  -152.10070007     0.00009071  0.00404252  0.00623408  0.00179962  0.04657211  0.09432103  0.00786009     29.95
  18  -152.10070007  -152.10086293    -0.00016287  0.00878943  0.01529045  0.00441397  0.03490659  0.07176987  0.00598082     31.61
  19  -152.10086293  -152.10109988    -0.00023695  0.00724513  0.01162450  0.00335570  0.03490659  0.06379500  0.00531625     33.19
  20  -152.10109988  -152.10095305     0.00014684  0.00451240  0.00601060  0.00173511  0.03490659  0.07704634  0.00642053     34.93
  21  -152.10095305  -152.10067309     0.00027995  0.00860899  0.01362538  0.00393331  0.03490659  0.06210944  0.00517579     36.43
  22  -152.10067309  -152.10017791     0.00049518  0.01159804  0.01935430  0.00558710  0.03490659  0.06546695  0.00545558     38.02
  23  -152.10017791  -152.10070152    -0.00052361  0.01632583  0.02665933  0.00769589  0.03490659  0.06553495  0.00546125     39.64
  24  -152.10070152  -152.10139370    -0.00069218  0.01300548  0.02095058  0.00604791  0.07501071  0.10483978  0.00873665     41.28
  25  -152.10139370  -152.10155829    -0.00016459  0.00583683  0.00954583  0.00275564  0.03490659  0.07828507  0.00652376     42.93
  26  -152.10155829  -152.10166392    -0.00010563  0.00422850  0.00704741  0.00203441  0.03490659  0.08239096  0.00686591     44.76
  27  -152.10166392  -152.10176112    -0.00009719  0.00255630  0.00547265  0.00157982  0.03490659  0.08101676  0.00675140     46.48
  28  -152.10176112  -152.09563749     0.00612362  0.00195354  0.00328830  0.00094925  0.03490659  0.07611766  0.00634314     48.49
  29  -152.09563749  -152.09566225    -0.00002476  0.01523724  0.02026847  0.00585100  0.06238859  0.09161167  0.00763431     50.09
  30  -152.09566225  -152.09477521     0.00088705  0.01687645  0.02394038  0.00691099  0.14771878  0.16703861  0.01391988     51.76
  31  -152.09477521  -152.09544584    -0.00067064  0.01855298  0.03128427  0.00903099  0.03490659  0.08192083  0.00682674     53.44
  32  -152.09544584  -152.09534474     0.00010111  0.01781911  0.02776993  0.00801649  0.20347749  0.22502093  0.01875174     55.02
  33  -152.09534474  -152.09664724    -0.00130250  0.03552092  0.04710509  0.01359807  0.04317163  0.09241213  0.00770101     56.64
  34  -152.09664724  -152.09746797    -0.00082073  0.02198895  0.02876934  0.00830499  0.03490659  0.07719159  0.00643263     58.18
  35  -152.09746797  -152.09804988    -0.00058190  0.01333258  0.01897964  0.00547895  0.03490659  0.06527120  0.00543927     59.78
  36  -152.09804988  -152.09863423    -0.00058435  0.01185805  0.01787198  0.00515920  0.04543046  0.08802688  0.00733557     61.37
  37  -152.09863423  -152.09908443    -0.00045020  0.01028313  0.01418223  0.00409406  0.04575692  0.08564882  0.00713740     63.05
  38  -152.09908443  -152.09955414    -0.00046972  0.00930247  0.01287384  0.00371636  0.03490659  0.07603935  0.00633661     64.71
  39  -152.09955414  -152.09990999    -0.00035585  0.00721724  0.00954195  0.00275452  0.03490659  0.07817675  0.00651473     66.34
  40  -152.09990999  -152.10020222    -0.00029223  0.00501664  0.00791647  0.00228529  0.03490659  0.07593660  0.00632805     68.08
  41  -152.10020222  -152.10059657    -0.00039434  0.00549726  0.00911268  0.00263060  0.08203008  0.11049038  0.00920753     69.83
  42  -152.10059657  -152.10084511    -0.00024854  0.00710986  0.01005831  0.00290358  0.08128208  0.11255836  0.00937986     71.50
  43  -152.10084511  -152.10103404    -0.00018893  0.00411640  0.00676689  0.00195343  0.05021433  0.08999995  0.00750000     73.13
  44  -152.10103404  -152.10131050    -0.00027646  0.00616301  0.00863919  0.00249392  0.03490659  0.07438023  0.00619835     74.75
  45  -152.10131050  -152.10149907    -0.00018857  0.00459035  0.00590566  0.00170482  0.03490659  0.07978783  0.00664899     76.37
  46  -152.10149907  -152.10165057    -0.00015150  0.00193302  0.00335158  0.00096752  0.03490659  0.07277154  0.00606430     78.05
  47  -152.10165057  -152.10168510    -0.00003453  0.00186340  0.00248710  0.00071796  0.03490659  0.06423561  0.00535297     79.88
  48  -152.10168510  -152.10171099    -0.00002589  0.00265896  0.00472255  0.00136328  0.03490659  0.07656293  0.00638024     81.44
  49  -152.10171099  -152.10175992    -0.00004893  0.00347383  0.00584925  0.00168853  0.03490659  0.07006187  0.00583849     83.00
  50  -152.10175992  -152.10162992     0.00012999  0.00340053  0.00533909  0.00154126  0.03490659  0.07114436  0.00592870     84.57
  51  -152.10162992  -152.10156038     0.00006954  0.00639852  0.01115782  0.00322099  0.03490659  0.06695651  0.00557971     86.19
  52  -152.10156038  -152.10171441    -0.00015402  0.00766901  0.01352707  0.00390493  0.03521900  0.08164521  0.00680377     87.86
  53  -152.10171441  -152.10180645    -0.00009204  0.00598981  0.01048350  0.00302633  0.03490659  0.07869483  0.00655790     89.65
  54  -152.10180645  -152.10177987     0.00002658  0.00465319  0.00807143  0.00233002  0.03490659  0.06586707  0.00548892     91.15
  55  -152.10177987  -152.10171733     0.00006254  0.00556326  0.01027910  0.00296732  0.03490659  0.07919746  0.00659979     92.88
  56  -152.10171733  -152.10181926    -0.00010194  0.00654084  0.01275197  0.00368118  0.03490659  0.07065956  0.00588830     94.55
  57  -152.10181926  -152.10177991     0.00003935  0.00521138  0.01052139  0.00303726  0.03490659  0.07556555  0.00629713     96.19
  58  -152.10177991  -152.10187948    -0.00009957  0.00603689  0.01205832  0.00348094  0.03490659  0.07519546  0.00626629     97.78
  59  -152.10187948  -152.10181276     0.00006671  0.00463311  0.00914849  0.00264094  0.03490659  0.05848853  0.00487404     99.27
  60  -152.10181276  -152.10191544    -0.00010268  0.00640234  0.01244019  0.00359117  0.03490659  0.07896552  0.00658046    100.88
  61  -152.10191544  -152.10187296     0.00004248  0.00544359  0.01011198  0.00291908  0.03490659  0.07226397  0.00602200    102.66
  62  -152.10187296  -152.10187573    -0.00000277  0.00631764  0.01208917  0.00348984  0.03490659  0.05848983  0.00487415    104.18
  63  -152.10187573  -152.10189065    -0.00001492  0.00650237  0.01254241  0.00362068  0.03490659  0.05971860  0.00497655    105.83
  64  -152.10189065  -152.10202842    -0.00013776  0.00631166  0.01243291  0.00358907  0.03490659  0.07499956  0.00624996    107.41
  65  -152.10202842  -152.10216532    -0.00013691  0.00340260  0.00714881  0.00206368  0.03490659  0.07532201  0.00627683    109.03
  66  -152.10216532  -152.10221237    -0.00004705  0.00158749  0.00300394  0.00086716  0.03490659  0.06700357  0.00558363    110.56
  67  -152.10221237  -152.10223318    -0.00002081  0.00103541  0.00182412  0.00052658  0.03490659  0.05037260  0.00419772    112.26
  68  -152.10223318  -152.10220171     0.00003147  0.00126554  0.00238173  0.00068755  0.03490659  0.05598659  0.00466555    113.95
  69  -152.10220171  -152.10228671    -0.00008500  0.00293746  0.00651090  0.00187953  0.03490659  0.06401882  0.00533490    115.56
  70  -152.10228671  -152.10231961    -0.00003289  0.00198313  0.00292335  0.00084390  0.03490659  0.05551744  0.00462645    117.36
  71  -152.10231961  -152.10235001    -0.00003041  0.00189360  0.00284248  0.00082055  0.03490659  0.05413315  0.00451110    119.21
  72  -152.10235001  -152.10234411     0.00000590  0.00180497  0.00257481  0.00074328  0.03490659  0.05826997  0.00485583    120.95
  73  -152.10234411  -152.10234825    -0.00000414  0.00254476  0.00518177  0.00149585  0.03490659  0.05466311  0.00455526    122.65
  74  -152.10234825  -152.10240474    -0.00005648  0.00355435  0.00622812  0.00179790  0.03490659  0.05767797  0.00480650    124.24
  75  -152.10240474  -152.10242469    -0.00001995  0.00326867  0.00474434  0.00136957  0.03490659  0.05617203  0.00468100    125.85
  76  -152.10242469  -152.10244934    -0.00002465  0.00266983  0.00478716  0.00138193  0.03490659  0.06585043  0.00548754    127.74
  77  -152.10244934  -152.10245663    -0.00000729  0.00316284  0.00422862  0.00122070  0.03490659  0.05255307  0.00437942    129.35
  78  -152.10245663  -152.10248811    -0.00003148  0.00369036  0.00526250  0.00151915  0.03490659  0.05164238  0.00430353    130.87
  79  -152.10248811  -152.10252257    -0.00003447  0.00364062  0.00520719  0.00150319  0.03490659  0.07447054  0.00620588    132.53
  80  -152.10252257  -152.10255795    -0.00003537  0.00227118  0.00415500  0.00119945  0.03490659  0.06090614  0.00507551    134.26
  81  -152.10255795  -152.10249389     0.00006406  0.00224681  0.00422432  0.00121946  0.03490659  0.07008756  0.00584063    135.92
  82  -152.10249389  -152.10243342     0.00006047  0.00483434  0.00910640  0.00262879  0.03490659  0.06301521  0.00525127    137.44
  83  -152.10243342  -152.10235779     0.00007563  0.00613975  0.01147163  0.00331157  0.04247778  0.09031212  0.00752601    139.12
  84  -152.10235779  -152.10259066    -0.00023287  0.00684710  0.01257619  0.00363043  0.03490659  0.07020717  0.00585060    140.75
  85  -152.10259066  -152.10264230    -0.00005163  0.00454761  0.00616753  0.00178041  0.03490659  0.07311547  0.00609296    142.52
  86  -152.10264230  -152.10268190    -0.00003960  0.00229082  0.00476684  0.00137607  0.03490659  0.06229814  0.00519151    144.12
  87  -152.10268190  -152.10270996    -0.00002805  0.00141740  0.00257171  0.00074239  0.03490659  0.05374095  0.00447841    145.98
  88  -152.10270996  -152.10272148    -0.00001152  0.00103084  0.00179475  0.00051810  0.03490659  0.05239286  0.00436607    147.82
  89  -152.10272148  -152.10271180     0.00000968  0.00200512  0.00356501  0.00102913  0.03490659  0.05366009  0.00447167    149.38
  90  -152.10271180  -152.10275419    -0.00004239  0.00305737  0.00570796  0.00164775  0.03490659  0.04946864  0.00412239    151.01
  91  -152.10275419  -152.10278565    -0.00003147  0.00267842  0.00442823  0.00127832  0.03490659  0.05795316  0.00482943    152.56
  92  -152.10278565  -152.10280878    -0.00002313  0.00296879  0.00343049  0.00099030  0.03490659  0.06037051  0.00503088    154.07
  93  -152.10280878  -152.10280677     0.00000201  0.00191953  0.00241850  0.00069816  0.03490659  0.05819692  0.00484974    155.92
  94  -152.10280677  -152.10282742    -0.00002065  0.00220288  0.00407247  0.00117562  0.03490659  0.05222971  0.00435248    157.53
  95  -152.10282742  -152.10284043    -0.00001301  0.00172655  0.00315503  0.00091078  0.03490659  0.05429103  0.00452425    159.13
  96  -152.10284043  -152.10286344    -0.00002301  0.00114838  0.00208270  0.00060122  0.03490659  0.05044099  0.00420342    161.02
  97  -152.10286344  -152.10288003    -0.00001659  0.00061251  0.00106529  0.00030752  0.03490659  0.06199814  0.00516651    162.72
  98  -152.10288003  -152.10287923     0.00000080  0.00183851  0.00199351  0.00057548  0.03490659  0.06326084  0.00527174    164.54
  99  -152.10287923  -152.10289209    -0.00001286  0.00154007  0.00246211  0.00071075  0.03490659  0.05486244  0.00457187    166.19
 100  -152.10289209  -152.10289096     0.00000113  0.00086287  0.00191069  0.00055157  0.03490659  0.05156517  0.00429710    167.97

 END OF GEOMETRY OPTIMIZATION.

 Optimized variables
 R1=                  0.93972723 ANG
 R2=                  0.94479992 ANG
 PHI=               105.50539034 DEGREE
 D1=                  2.03317559 ANG
 THETA=             176.59017612 DEGREE
 OMEGA=             180.00000000 DEGREE
 R3=                  0.94220339 ANG
 PHI1=              119.42406134 DEGREE
 THETA1=            -58.32246331 DEGREE
 R4=                  0.94182892 ANG
 PHI2=              112.89805790 DEGREE
 THETA2=           -114.46367563 DEGREE

 **********************************************************************************************************************************

 Geometry written to block  1 of record 700

 Recomputing wavefunction for reoriented structure

 Current geometry (xyz format, in Angstrom)

    6
 HF-SCF000/6-311G(D,P)  ENERGY=-152.10289096
 H          0.6075846423       -0.5482904767       -1.8491643972
 O         -0.0478939796        0.0418241575       -1.5248192737
 H          0.0109362767       -0.0081749003       -0.5831792268
 O          0.0476880389       -0.0349984858        1.4494871987
 H          0.1254745990        0.8351968794        1.8022711363
 H         -0.7407270902       -0.3870598372        1.8256468765

 **********************************************************************************************************************************


 **********************************************************************************************************************************
 DATASETS  * FILE   NREC   LENGTH (MB)   RECORD NAMES
              1      19       28.76       500      610      700      900      700(1)   950      970     1000      129      960   
                                          VAR    BASINP    GEOM    SYMINP    GEOM     ZMAT    AOBASIS   BASIS     P2S    ABASIS    
                                         1100     1400     1410     1200     1210     1080     1600     1650     1700   
                                           S        T        V       H0       H01     AOSYM     SMH    MOLCAS    OPER   

              2       5        0.52       700     1000      520     2100      700(1)
                                         GEOM     BASIS   MCVARS     RHF     GEOM   

 PROGRAMS   *        TOTAL      OPTG    HF-SCF       INT
 CPU TIMES  *       170.01    168.17      1.13      0.48
 REAL TIME  *       124.56 SEC
 DISK USED  *        29.56 MB (local),      344.54 MB (total)
 SF USED    *         0.01 MB
 GA USED    *         0.00 MB       (max)       0.00 MB       (current)
 **********************************************************************************************************************************


 PROGRAM * HESSIAN

 PROGRAM * MCKINLEY (Hessian of the energy)     Author: A. Bernhardsson, R. Lindh

 Orbitals from record         2100.2

 Number of closed-shell orbitals: 10 ( 10 )
 Number of occupied orbitals:     10 ( 10 )

 Number of electrons= 20     Singlet     Space symmetry=1      Wavefunction type: CLOSED          


 McKinley needed     14.76 seconds of CPU time

 Entering CPHF calculation

 CPHF needed 145 iterations for 18 perturbations.  Total CPU time:   11.72 sec


 HF-SCF hessian saved to record  5300.2

 PROGRAM * FREQUENCIES (Calculation of harmonic vibrational spectra for HF-SCF)


 Permanent Dipole Moment [debye]
 1-3    0.000000    0.000000    0.000000

 Dipole Moment Norm    0.0000000 [debye]

 Dipole Moment Derivatives [debye/ang]
              1             2             3             4             5             6             7             8
    1    0.00000000    0.00000000    0.00000000    0.00000000    0.00000000    0.00000000    0.00000000    0.00000000
    2    0.00000000    0.00000000    0.00000000    0.00000000    0.00000000    0.00000000    0.00000000    0.00000000
    3    0.00000000    0.00000000    0.00000000    0.00000000    0.00000000    0.00000000    0.00000000    0.00000000
              9            10            11            12            13            14            15            16
    1    0.00000000    0.00000000    0.00000000    0.00000000    0.00000000    0.00000000    0.00000000    0.00000000
    2    0.00000000    0.00000000    0.00000000    0.00000000    0.00000000    0.00000000    0.00000000    0.00000000
    3    0.00000000    0.00000000    0.00000000    0.00000000    0.00000000    0.00000000    0.00000000    0.00000000
             17            18
    1    0.00000000    0.00000000
    2    0.00000000    0.00000000
    3    0.00000000    0.00000000

 Projecting out rotations and translations

 Force Constants (Second Derivatives of the Energy) in [a.u.]
                             H1X1        H1Y1        H1Z1        O1X2        O1Y2    
           H1X1          0.3065454
           H1Y1         -0.2757389   0.2484736
           H1Z1         -0.1498071   0.1349973   0.1323818
           O1X2         -0.3078758   0.2765134   0.1087325   0.3433160
           O1Y2          0.2766581  -0.2495128  -0.0980725  -0.3053644   0.2784616
           O1Z2          0.1553459  -0.1399879  -0.1156645  -0.0903885   0.0834640
           H2X3          0.0016336  -0.0007341   0.0418440  -0.0382065   0.0285372
           H2Y3         -0.0008853   0.0013377  -0.0376455   0.0286748  -0.0319086
           H2Z3         -0.0051410   0.0045643  -0.0160249  -0.0187063   0.0150133
           O2X4         -0.0006081  -0.0003221  -0.0008432   0.0040002   0.0005856
           O2Y4         -0.0003636  -0.0006892   0.0008152   0.0006229   0.0042475
           O2Z4         -0.0005693   0.0004960  -0.0009418   0.0018291  -0.0013940
           H3X5          0.0001496   0.0000988  -0.0000111  -0.0005994  -0.0001354
           H3Y5          0.0002037   0.0001936  -0.0000990  -0.0002574  -0.0006803
           H3Z5         -0.0000091  -0.0001444   0.0001883   0.0003424   0.0019722
           H4X6          0.0001553   0.0001830   0.0000850  -0.0006345  -0.0002811
           H4Y6          0.0001260   0.0001971   0.0000045  -0.0001893  -0.0006074
           H4Z6          0.0001807   0.0000747   0.0000611  -0.0018092  -0.0009831
                             O1Z2        H2X3        H2Y3        H2Z3        O2X4    
           O1Z2          0.7134409
           H2X3         -0.0650974   0.0407822
           H2Y3          0.0566361  -0.0270052   0.0354040
           H2Z3         -0.5910675   0.0231101  -0.0188430   0.6097354
           O2X4          0.0001744  -0.0057155  -0.0010093   0.0011925   0.4782179
           O2Y4         -0.0001003  -0.0010326  -0.0063172  -0.0010627   0.2262013
           O2Z4         -0.0068994  -0.0031091   0.0022847  -0.0014005  -0.2184954
           H3X5          0.0005692   0.0008098   0.0000763  -0.0014082  -0.0422012
           H3Y5          0.0008179   0.0001281   0.0007151  -0.0014935  -0.0705653
           H3Z5          0.0000992  -0.0003883  -0.0040535  -0.0007048  -0.0045198
           H4X6         -0.0006036   0.0006965   0.0001486   0.0009530  -0.4336933
           H4Y6         -0.0008298   0.0001066   0.0007690   0.0018215  -0.1548902
           H4Z6          0.0000912   0.0036408   0.0016212  -0.0005377   0.2224915
                             O2Y4        O2Z4        H3X5        H3Y5        H3Z5    
           O2Y4          0.6443224
           O2Z4          0.1431361   0.2352085
           H3X5         -0.0211690   0.0191385   0.0459796
           H3Y5         -0.5213120  -0.1940708   0.0669131   0.5397472
           H3Z5         -0.2262039  -0.1075317  -0.0001186   0.2060522   0.0998741
           H4X6         -0.2042590   0.2012064  -0.0041385   0.0035778   0.0046933
           H4Y6         -0.1202515   0.0495479  -0.0457839  -0.0186637   0.0223774
           H4Z6          0.0834155  -0.1184351  -0.0181698  -0.0112068   0.0080749
                             H4X6        H4Y6        H4Z6    
           H4X6          0.4376145
           H4Y6          0.2006308   0.1385565
           H4Z6         -0.2063340  -0.0729215   0.1107457


 Atomic Masses
 1-6    1.007825   15.994910    1.007825   15.994910    1.007825    1.007825

 Mass weighted Second Derivative Matrix
                             H1X1        H1Y1        H1Z1        O1X2        O1Y2    
           H1X1          0.3041653
           H1Y1         -0.2735980   0.2465443
           H1Z1         -0.1486440   0.1339491   0.1313539
           O1X2         -0.0766818   0.0688704   0.0270817   0.0214641
           O1Y2          0.0689064  -0.0621455  -0.0244266  -0.0190913   0.0174094
           O1Z2          0.0386916  -0.0348664  -0.0288082  -0.0056511   0.0052182
           H2X3          0.0016209  -0.0007284   0.0415191  -0.0095160   0.0071077
           H2Y3         -0.0008784   0.0013273  -0.0373532   0.0071419  -0.0079474
           H2Z3         -0.0051011   0.0045289  -0.0159005  -0.0046591   0.0037393
           O2X4         -0.0001515  -0.0000802  -0.0002100   0.0002501   0.0000366
           O2Y4         -0.0000906  -0.0001717   0.0002030   0.0000389   0.0002656
           O2Z4         -0.0001418   0.0001235  -0.0002346   0.0001144  -0.0000872
           H3X5          0.0001484   0.0000980  -0.0000110  -0.0001493  -0.0000337
           H3Y5          0.0002021   0.0001921  -0.0000982  -0.0000641  -0.0001694
           H3Z5         -0.0000090  -0.0001433   0.0001868   0.0000853   0.0004912
           H4X6          0.0001541   0.0001816   0.0000843  -0.0001580  -0.0000700
           H4Y6          0.0001251   0.0001956   0.0000045  -0.0000471  -0.0001513
           H4Z6          0.0001793   0.0000741   0.0000607  -0.0004506  -0.0002448
                             O1Z2        H2X3        H2Y3        H2Z3        O2X4    
           O1Z2          0.0446042
           H2X3         -0.0162136   0.0404655
           H2Y3          0.0141062  -0.0267955   0.0351291
           H2Z3         -0.1472155   0.0229306  -0.0186967   0.6050013
           O2X4          0.0000109  -0.0014235  -0.0002514   0.0002970   0.0298981
           O2Y4         -0.0000063  -0.0002572  -0.0015734  -0.0002647   0.0141421
           O2Z4         -0.0004313  -0.0007744   0.0005690  -0.0003488  -0.0136603
           H3X5          0.0001418   0.0008035   0.0000758  -0.0013973  -0.0105109
           H3Y5          0.0002037   0.0001271   0.0007096  -0.0014819  -0.0175755
           H3Z5          0.0000247  -0.0003853  -0.0040220  -0.0006993  -0.0011257
           H4X6         -0.0001503   0.0006911   0.0001475   0.0009456  -0.1080188
           H4Y6         -0.0002067   0.0001057   0.0007631   0.0018074  -0.0385781
           H4Z6          0.0000227   0.0036125   0.0016086  -0.0005336   0.0554153
                             O2Y4        O2Z4        H3X5        H3Y5        H3Z5    
           O2Y4          0.0402830
           O2Z4          0.0089489   0.0147052
           H3X5         -0.0052725   0.0047668   0.0456226
           H3Y5         -0.1298417  -0.0483367   0.0663936   0.5355565
           H3Z5         -0.0563400  -0.0267826  -0.0001176   0.2044523   0.0990987
           H4X6         -0.0508742   0.0501139  -0.0041063   0.0035500   0.0046569
           H4Y6         -0.0299507   0.0123408  -0.0454284  -0.0185188   0.0222037
           H4Z6          0.0207761  -0.0294983  -0.0180288  -0.0111198   0.0080122
                             H4X6        H4Y6        H4Z6    
           H4X6          0.4342167
           H4Y6          0.1990730   0.1374807
           H4Z6         -0.2047320  -0.0723553   0.1098858


 Mass Weighted 2nd Derivative Matrix Eigenvalues
 1-10    0.000000    0.000000    0.000000    0.000000    0.000000    0.000000    0.000154    0.000332    0.000995    0.001212
 11-18    0.004983    0.013759    0.116890    0.119391    0.636793    0.647499    0.674989    0.675886

 Mass Weighted 2nd Derivative Matrix Eigenvectors
              1             2             3             4             5             6             7             8
    1    0.06332926    0.15522270   -0.18057486   -0.16939282   -0.29380466    0.17526093   -0.17020754    0.50103064
    2   -0.15737229    0.19603352    0.02814344   -0.04121517   -0.41201480    0.04513170   -0.16953735    0.55990306
    3    0.03802553    0.05164415    0.05255603   -0.02251128    0.06322937    0.15747763   -0.03125322    0.00049386
    4    0.85221552    0.25046134   -0.30115189   -0.05660500   -0.09539460    0.13004470    0.13247931   -0.09009802
    5    0.10589284    0.45963839    0.49494847    0.40082011   -0.34827137   -0.40297202    0.15472312   -0.09497675
    6    0.03057010    0.04682129    0.35805048    0.13171793    0.07182731    0.53943722    0.00280416    0.01672586
    7    0.13322098    0.02530748   -0.08794178    0.04198791   -0.04987317    0.04248509   -0.20869465   -0.15992217
    8   -0.01559162    0.13773837    0.05038046    0.07361731   -0.04560834   -0.05421175   -0.28071988   -0.18094774
    9    0.01047610    0.01528702    0.08672611    0.02811899    0.02186988    0.13728503   -0.00114851    0.00440660
   10   -0.06834852   -0.26445204   -0.39841519    0.72280452   -0.27333185    0.17620949   -0.07689695   -0.06610187
   11   -0.31918683    0.69401684   -0.36979892    0.14153164    0.34291128    0.10127597   -0.07861705   -0.09276536
   12    0.04917398    0.06942220    0.33884078    0.09997380    0.09539787    0.55097777   -0.00808571   -0.01836475
   13    0.21370571   -0.19668950    0.05524551    0.40129300    0.32972580   -0.16578515   -0.12166705    0.37938679
   14   -0.11229458    0.18987648   -0.13052320    0.01294585    0.07615218    0.05640984    0.20507358    0.01187217
   15    0.04080076    0.00751295    0.14380909    0.03231710   -0.03940493    0.10817513   -0.53261954   -0.17969062
   16   -0.14693460   -0.03796344   -0.16466978    0.12961511   -0.23140866    0.12799903    0.27913984   -0.09822501
   17    0.14150846    0.07697713    0.02369879    0.20632324    0.47547886   -0.15101634   -0.05800828    0.35710093
   18   -0.05223488   -0.01401354    0.05858672    0.07633601    0.04718449    0.14874285    0.58606197    0.18131921
              9            10            11            12            13            14            15            16
    1   -0.11644383   -0.08823337    0.11730075    0.04337437   -0.03592026    0.16003537    0.26143486   -0.07599623
    2    0.09027905    0.10132831   -0.12095112    0.03879270    0.03193761   -0.14217144   -0.23543342    0.06846963
    3   -0.24315936   -0.44144583    0.46139561    0.01834808   -0.13208220    0.59058271   -0.15927635    0.04428298
    4   -0.01962690   -0.02936105   -0.03014333   -0.08839350    0.03710565   -0.16483833   -0.07377056    0.02030453
    5    0.01364783    0.01379747    0.03922500   -0.09256578   -0.03319644    0.14788186    0.06574230   -0.01818170
    6    0.55076692   -0.40054473   -0.09375535   -0.00361988    0.03288867   -0.13167960   -0.17924087    0.02931736
    7    0.29151032    0.25771140   -0.35444741    0.58155653   -0.11259788    0.51822853    0.03176606   -0.00405540
    8   -0.23221897   -0.21019026    0.27971084    0.66976773    0.10160652   -0.46844589   -0.02572525    0.00327113
    9    0.10651239   -0.12758443    0.01175954   -0.00190384    0.01148483   -0.06348173    0.87633152   -0.16320669
   10    0.06241524    0.07265780    0.20616063   -0.09834615    0.16277513    0.02725096    0.02425435    0.11500085
   11   -0.03886815   -0.05095091   -0.16456115   -0.12001831   -0.11895788   -0.01808228   -0.01942071   -0.09333149
   12   -0.33643836    0.60628982    0.16218377   -0.00559062   -0.17304961   -0.04385704   -0.02593860   -0.12303317
   13   -0.17543696   -0.16560011   -0.24285113    0.04936465   -0.55912648   -0.11697034    0.01554600    0.08673818
   14    0.12241647    0.12066679    0.17207111    0.07092475   -0.09552537   -0.02702975    0.13065802    0.64796612
   15   -0.36644634   -0.13540391   -0.41531916   -0.26547356    0.34554318    0.09039644    0.04958645    0.24491518
   16   -0.17009002   -0.17636379   -0.22122125    0.06963925   -0.08864190   -0.01317197   -0.11148389   -0.54571710
   17    0.11999635    0.13620728    0.16848427    0.06740889    0.56813474    0.12055057   -0.05403564   -0.27545981
   18   -0.35075038   -0.11521464   -0.33044163    0.28572220    0.33342838    0.08180674    0.05075390    0.24735429
             17            18
    1    0.61267629   -0.01310365
    2   -0.55156883    0.01252962
    3   -0.31938629    0.00701672
    4   -0.14504918    0.00310136
    5    0.13089387   -0.00295658
    6    0.17571610   -0.00407588
    7   -0.03456779    0.00038547
    8    0.02984404   -0.00119254
    9   -0.38130516    0.00921188
   10    0.00041784   -0.16052691
   11   -0.00814782   -0.21868510
   12   -0.00425132    0.00800945
   13    0.00532202    0.05385982
   14    0.03803418    0.60871720
   15    0.01467289    0.24802013
   16   -0.00724709    0.58601142
   17   -0.00530602    0.26292349
   18    0.00293592   -0.27991931

   Low Vibration      Wavenumber
        Nr             [1/cm] 
        1                0.00
        2                0.00
        3                0.00
        4                0.00
        5                0.00
        6                0.00

     Vibration        Wavenumber
        Nr             [1/cm] 
        1               63.87
        2               93.72
        3              162.14
        4              178.98
        5              362.88
        6              602.98
        7             1757.49
        8             1776.19
        9             4102.07
       10             4136.41
       11             4223.31
       12             4226.11

 FREQUENCIES * CALCULATION OF NORMAL MODES FOR HF-SCF


 Atomic Coordinates

  Nr  Atom  Charge       X              Y              Z

   1   H1    1.00    1.148168571   -1.036118838   -3.494414270
   2   O1    8.00   -0.090506505    0.079036203   -2.881490817
   3   H2    1.00    0.020666568   -0.015448323   -1.102049020
   4   O2    8.00    0.090117333   -0.066137553    2.739133827
   5   H3    1.00    0.237112628    1.578293362    3.405798850
   6   H4    1.00   -1.399771334   -0.731437086    3.449972597

 Gradient norm at reference geometry: 0.24516D-02

 ?WARNING: GRADIENT NORM NOT ZERO!

 Normal Modes

                              1 A         2 A         3 A         4 A         5 A  
 Wavenumbers [cm-1]           63.87       93.72      162.14      178.98      362.88
 Intensities [km/mol]          0.00        0.00        0.00        0.00        0.00
 Intensities [relative]        0.00        0.00        0.00        0.00        0.00
           H1X1            -0.16955     0.49908    -0.11599    -0.08789     0.11684
           H1Y1            -0.16888     0.55773     0.08993     0.10093    -0.12048
           H1Z1            -0.03113     0.00049    -0.24221    -0.43973     0.45960
           O1X2             0.03313    -0.02253    -0.00491    -0.00734    -0.00754
           O1Y2             0.03869    -0.02375     0.00341     0.00345     0.00981
           O1Z2             0.00070     0.00418     0.13771    -0.10015    -0.02344
           H2X3            -0.20788    -0.15930     0.29038     0.25671    -0.35307
           H2Y3            -0.27963    -0.18024    -0.23132    -0.20937     0.27862
           H2Z3            -0.00114     0.00439     0.10610    -0.12709     0.01171
           O2X4            -0.01923    -0.01653     0.01561     0.01817     0.05155
           O2Y4            -0.01966    -0.02320    -0.00972    -0.01274    -0.04115
           O2Z4            -0.00202    -0.00459    -0.08412     0.15160     0.04055
           H3X5            -0.12119     0.37791    -0.17475    -0.16496    -0.24191
           H3Y5             0.20428     0.01183     0.12194     0.12020     0.17140
           H3Z5            -0.53055    -0.17899    -0.36502    -0.13488    -0.41370
           H4X6             0.27805    -0.09784    -0.16943    -0.17568    -0.22036
           H4Y6            -0.05778     0.35571     0.11953     0.13568     0.16783
           H4Z6             0.58378     0.18061    -0.34939    -0.11477    -0.32916

                              6 A         7 A         8 A         9 A        10 A  
 Wavenumbers [cm-1]          602.98     1757.49     1776.19     4102.07     4136.41
 Intensities [km/mol]          0.00        0.00        0.00        0.00        0.00
 Intensities [relative]        0.00        0.00        0.00        0.00        0.00
           H1X1             0.04321    -0.03578     0.15941     0.26042    -0.07570
           H1Y1             0.03864     0.03181    -0.14162    -0.23452     0.06820
           H1Z1             0.01828    -0.13157     0.58829    -0.15866     0.04411
           O1X2            -0.02210     0.00928    -0.04122    -0.01845     0.00508
           O1Y2            -0.02315    -0.00830     0.03698     0.01644    -0.00455
           O1Z2            -0.00091     0.00822    -0.03293    -0.04482     0.00733
           H2X3             0.57929    -0.11216     0.51621     0.03164    -0.00404
           H2Y3             0.66716     0.10121    -0.46662    -0.02563     0.00326
           H2Z3            -0.00190     0.01144    -0.06323     0.87292    -0.16257
           O2X4            -0.02459     0.04070     0.00681     0.00606     0.02875
           O2Y4            -0.03001    -0.02974    -0.00452    -0.00486    -0.02334
           O2Z4            -0.00140    -0.04327    -0.01097    -0.00649    -0.03076
           H3X5             0.04917    -0.55695    -0.11652     0.01549     0.08640
           H3Y5             0.07065    -0.09515    -0.02692     0.13015     0.64545
           H3Z5            -0.26444     0.34420     0.09004     0.04939     0.24396
           H4X6             0.06937    -0.08830    -0.01312    -0.11105    -0.54359
           H4Y6             0.06715     0.56592     0.12008    -0.05383    -0.27439
           H4Z6             0.28461     0.33213     0.08149     0.05056     0.24639

                             11 A        12 A  
 Wavenumbers [cm-1]         4223.31     4226.11
 Intensities [km/mol]          0.00        0.00
 Intensities [relative]        0.00        0.00
           H1X1             0.61029    -0.01305
           H1Y1            -0.54942     0.01248
           H1Z1            -0.31814     0.00699
           O1X2            -0.03627     0.00078
           O1Y2             0.03273    -0.00074
           O1Z2             0.04394    -0.00102
           H2X3            -0.03443     0.00038
           H2Y3             0.02973    -0.00119
           H2Z3            -0.37982     0.00918
           O2X4             0.00010    -0.04014
           O2Y4            -0.00204    -0.05468
           O2Z4            -0.00106     0.00200
           H3X5             0.00530     0.05365
           H3Y5             0.03789     0.60635
           H3Z5             0.01462     0.24706
           H4X6            -0.00722     0.58373
           H4Y6            -0.00529     0.26190
           H4Z6             0.00292    -0.27883


 Normal Modes of low/zero frequencies

                                  1           2           3           4           5
 Wavenumbers [cm-1]            0.00        0.00        0.00        0.00        0.00
 Intensities [km/mol]          0.00        0.00        0.00        0.00        0.00
 Intensities [relative]        0.00        0.00        0.00        0.00        0.00
           H1X1             0.06308     0.15462    -0.17987    -0.16873    -0.29266
           H1Y1            -0.15676     0.19527     0.02803    -0.04105    -0.41041
           H1Z1             0.03788     0.05144     0.05235    -0.02242     0.06298
           O1X2             0.21309     0.06263    -0.07530    -0.01415    -0.02385
           O1Y2             0.02648     0.11493     0.12376     0.10022    -0.08708
           O1Z2             0.00764     0.01171     0.08953     0.03293     0.01796
           H2X3             0.13270     0.02521    -0.08760     0.04182    -0.04968
           H2Y3            -0.01553     0.13720     0.05018     0.07333    -0.04543
           H2Z3             0.01044     0.01523     0.08639     0.02801     0.02178
           O2X4            -0.01709    -0.06612    -0.09962     0.18073    -0.06834
           O2Y4            -0.07981     0.17353    -0.09246     0.03539     0.08574
           O2Z4             0.01230     0.01736     0.08472     0.02500     0.02385
           H3X5             0.21287    -0.19592     0.05503     0.39973     0.32844
           H3Y5            -0.11186     0.18914    -0.13002     0.01290     0.07586
           H3Z5             0.04064     0.00748     0.14325     0.03219    -0.03925
           H4X6            -0.14636    -0.03782    -0.16403     0.12911    -0.23051
           H4Y6             0.14096     0.07668     0.02361     0.20552     0.47363
           H4Z6            -0.05203    -0.01396     0.05836     0.07604     0.04700

                                  6
 Wavenumbers [cm-1]            0.00
 Intensities [km/mol]          0.00
 Intensities [relative]        0.00
           H1X1             0.17458
           H1Y1             0.04496
           H1Z1             0.15687
           O1X2             0.03252
           O1Y2            -0.10076
           O1Z2             0.13488
           H2X3             0.04232
           H2Y3            -0.05400
           H2Z3             0.13675
           O2X4             0.04406
           O2Y4             0.02532
           O2Z4             0.13777
           H3X5            -0.16514
           H3Y5             0.05619
           H3Z5             0.10775
           H4X6             0.12750
           H4Y6            -0.15043
           H4Z6             0.14816


 Frequencies dumped to record   5400.2

 Zero point energy:  0.04940472 [H]    10843.08 [1/CM]      129.71 [KJ/MOL]
 Frequency information read from record  5400.2


 **********************************************************************************************************************************
 DATASETS  * FILE   NREC   LENGTH (MB)   RECORD NAMES
              1      19       28.76       500      610      700      900      700(1)   950      970     1000      129      960   
                                          VAR    BASINP    GEOM    SYMINP    GEOM     ZMAT    AOBASIS   BASIS     P2S    ABASIS    
                                         1100     1400     1410     1200     1210     1080     1600     1650     1700   
                                           S        T        V       H0       H01     AOSYM     SMH    MOLCAS    OPER   

              2       8        0.53       700     1000      520     2100      700(1)  5300     5450     5400   
                                         GEOM     BASIS   MCVARS     RHF     GEOM     HESS     NMOD     FREQ   

              4       5        1.06      4100     4000     4200     4300     4400   

 PROGRAMS   *        TOTAL      FREQ      OPTG    HF-SCF       INT
 CPU TIMES  *       196.51     26.50    168.17      1.13      0.48
 REAL TIME  *       146.73 SEC
 DISK USED  *        29.56 MB (local),      344.54 MB (total)
 SF USED    *         1.06 MB
 GA USED    *         0.00 MB       (max)       0.00 MB       (current)
 **********************************************************************************************************************************

 Dump information in style MOLDEN to h2o_dimer.molden                                                                

 Molecular orbitals read from record     2100.2  Type=RHF/CANONICAL  
 Occupation numbers read from record     2100.2  Type=RHF/RHF  
 Orbital energies read from record       2100.2  Type=RHF/CANONICAL  
 Redundancy group numbers read from rec  2100.2  Type=RHF/RHF  

 DUMP ORBITAL  1.1 AS ORBITAL    1  occ=    2.0000  eig=  -20.5727  GROUP=   2
 DUMP ORBITAL  2.1 AS ORBITAL    2  occ=    2.0000  eig=  -20.5089  GROUP=   2
 DUMP ORBITAL  3.1 AS ORBITAL    3  occ=    2.0000  eig=   -1.3788  GROUP=   2
 DUMP ORBITAL  4.1 AS ORBITAL    4  occ=    2.0000  eig=   -1.3184  GROUP=   2
 DUMP ORBITAL  5.1 AS ORBITAL    5  occ=    2.0000  eig=   -0.7451  GROUP=   2
 DUMP ORBITAL  6.1 AS ORBITAL    6  occ=    2.0000  eig=   -0.6921  GROUP=   2
 DUMP ORBITAL  7.1 AS ORBITAL    7  occ=    2.0000  eig=   -0.6057  GROUP=   2
 DUMP ORBITAL  8.1 AS ORBITAL    8  occ=    2.0000  eig=   -0.5477  GROUP=   2
 DUMP ORBITAL  9.1 AS ORBITAL    9  occ=    2.0000  eig=   -0.5243  GROUP=   2
 DUMP ORBITAL 10.1 AS ORBITAL   10  occ=    2.0000  eig=   -0.4714  GROUP=   2

 Total charge:      20.000000
 Frequency information read from record  5400.2

 **********************************************************************************************************************************

 HF/6-311G(D,P)//HF/6-311G(D,P) energy=   -152.102890958249

    OPTG(HF-SCF)          HF-SCF
   -152.10289096   -152.03738353
 **********************************************************************************************************************************
 Molpro calculation terminated with 1 warning(s)
