[Molden Format]
[Molpro variables]
_NUMVAR=  1088.000000000000    
_AVOGAD= 0.6022140760000000E+24
_BOLTZ= 0.1380649000000000E-22
_CLIGHTSI=  299792458.0000000    
_JOULE= 0.4359744722207100E-17
_JPCAL=  4.184000000000000    
_PLANCK= 0.6626070150000000E-33
_BOHR= 0.5291772109030000E-10
_ECHARG= 0.1602176634000000E-18
_ENULL= 0.8854187812800001E-11
_MU= 0.1660539066600000E-26
_EMASS= 0.9109383701500001E-30
_AMU2AU=  1822.888486217313    
_CLIGHT=  29979245800.00000    
_EV= 0.3674932217565494E-01
_KJOULE= 0.3808798847133432E-03
_KJOULE/MOL= 0.3808798847133432E-03
_CM= 0.4556335252912009E-05
_CM-1= 0.4556335252912009E-05
_DEB2SI= 0.3335640951981520E-29
_KCAL= 0.1593601437640628E-02
_KCAL/MOL= 0.1593601437640628E-02
_KELVIN= 0.3166811563455608E-05
_HERTZ= 0.1519829846057038E-15
_HZ= 0.1519829846057038E-15
_TOA= 0.5291772109030000    
_TOANG= 0.5291772109030000    
_TORAD= 0.1745329251994330E-01
_TOCM=  219474.6313631965    
_TODEBYE=  2.541746473194078    
_TOE= 0.4803204712570263E-09
_TOEV=  27.21138624598803    
_TOHERTZ=  6579683920501656.    
_TOHZ=  6579683920501656.    
_TOK=  315775.0248040668    
_TOKCAL=  627.5094740630558    
_TOKELVIN=  315775.0248040668    
_TOKJ=  2625.499639479825    
_TOKJOULE=  2625.499639479825    
_TOKG= 0.1660539066600000E-26
_ANG=  1.889726124625770    
_ANGSTROM=  1.889726124625770    
_RPAREF=  0.000000000000000    
_RPADISS=  0.000000000000000    
_IGNORE_UNDEF=  2.000000000000000    
_STRICTCHECK=  0.000000000000000    
!SEWARD=  0.000000000000000    
!MULTI=  0.000000000000000    
!DFMULTI=  0.000000000000000    
!NUMHESS=  0.000000000000000    
_SEW_ONEEL=  0.000000000000000    
_CPPDONE=FALSE
_DKROLL_DONE=  0.000000000000000    
_FNUC_DONE=  0.000000000000000    
_FOCKDONE=TRUE
_GRADONE=FALSE
_HESSDONE=TRUE
_INTDONE=TRUE
_SCFDONE=TRUE
_MODUL_BLOCK=FALSE
_MODUL_SLATER=TRUE
_MODUL_MRCC=FALSE
_MODUL_NBO6=FALSE
_MODUL_NECI=FALSE
_MODUL_AIMS=TRUE
_MODUL_HDF5=FALSE
_MODUL_GECCO=FALSE
_ISWINDOWS=FALSE
_MRCC_EXEC=
_FITC_AO_SAVED=FALSE
_FITC_MO_SAVED=FALSE
_LSTYP=SEWARD
_INTYP=INTS
_GEOMTYP=ZMAT
_GRADTYP=ALASKA
_DIRECT=FALSE
_DKHO= -1.000000000000000    
_FNUC=  0.000000000000000    
_SYNCM=  0.000000000000000    
_BASIS=6-311G(D,P)
_ZCENTRE=MASS
_ZORIENT=  1.000000000000000    
_NELEC=  20.00000000000000    
!SPIN=  0.000000000000000    
_OPTCONV= 0.5230694997376811E-01
_QSDSTEP=  0.000000000000000    
_QSDIRC=  0.000000000000000    
_PROGRAM=FREQ
_CPUSTEP=  1.390000000000001    
_SYSSTEP= 0.7000000000000028E-01
_WALLSTEP=  1.460000000000000    
!DFSCF=  0.000000000000000    
!SCSGRD=  0.000000000000000    
_NCEN=  6.000000000000000    
_CPUTOT=  50.12000000000000    
_DFTEXFAC=  1.000000000000000    
_DMX= 0.1788316764086652E-01
_DMY=-0.5135783167211131E-01
_DMZ=  1.175487076161652    
_DMX_SCF= 0.1788316764086652E-01
_DMY_SCF=-0.5135783167211131E-01
_DMZ_SCF=  1.175487076161652    
_FREQUENCIES= 0.5369891177149661E-04
_HOMO=  10.10000000000000    
_EHOMO=-0.4715549807053385    
_LUMO=  11.10000000000000    
_ELUMO= 0.1338709011590600    
_ENERGY= -152.1029021737443    
_ENERGY_METHOD=HF
_ENERGY_BASIS=6-311G(D,P)
_GEOMETRY_METHOD=HF
_GEOMETRY_BASIS=6-311G(D,P)
_ENUC=  36.52940767729024    
_GRADENERG= -152.1028930880423    
_GRADEXFAC=  9999.000000000000    
_GRADMETHOD=  1.000000000000000    
_NMRMETHOD=  0.000000000000000    
_NMRMAGNET=  0.000000000000000    
_VIRIAL=-0.1388039360208254E-02
!GRID_FREEZE= -1.000000000000000    
!NEESE_INDEX=  0.000000000000000    
_ITERATIONS=  2.000000000000000    
_LASTNELEC=  20.00000000000000    
_LASTSPIN=  0.000000000000000    
_LASTSYM=  1.000000000000000    
_MPP_PROG=  1.000000000000000    
_MSNSTATES=  0.000000000000000    
_RS2PHASE=  0.000000000000000    
_NPROC_MPP=  6.000000000000000    
_NPROC_SMP=  6.000000000000000    
_NUMSTEP=  0.000000000000000    
_OPTCONVMX= 0.3490658503988659E-01
_OPTCONVRMS= 0.4358912497814009E-02
_OPTGRAD= 0.3082552206143500E-02
_OPTGRADMX= 0.1743303541891079E-02
_OPTGRADRMS= 0.8898561730040123E-03
_OPTSTEP= -100.0000000000000    
_ORBITAL=  2100.200000000000    
_PI=  3.141592653589793    
_SEIG_MIN= 0.1378981409062309E-01
_SEWPROP=TRUE
_STATUS=  1.000000000000000    
_SYSTOT=  5.350000000000001    
_VERSION=  2024001.000000000    
_WALLTOT=  56.35000000000000    
_ZPE= 0.4944657395267409E-01
_DATE=01-May-24
_LASTORB=0
_OUTPUT=/home/lme/Bachelor_Thesis_Lukas_Meinschad/Rechnungen/h2o_dimer/h2o_dimer.out
_PGROUP=C1
_TIME=08:54:51
_LIBMOL=/usr/local/molpro/molpro_2024.1.0_sockets/lib/
_VIGRDC=  0.000000000000000    
!VIBCNT=  0.000000000000000    
!SURFREC=  0.000000000000000    
!XSURFREC=  0.000000000000000    
!XPOLYREC=  0.000000000000000    
!ROTREC=  0.000000000000000    
!POLYREC=  0.000000000000000    
!DIPREC=  0.000000000000000    
!DIP4DREC=  0.000000000000000    
!DIPROT=  0.000000000000000    
!DIP4DROT=  0.000000000000000    
!PTREC=  0.000000000000000    
!PT4DREC=  0.000000000000000    
!VSCFREC=  0.000000000000000    
!VCIREC=  0.000000000000000    
!PVCIREC=  0.000000000000000    
!VMP2REC=  0.000000000000000    
!VMCSCFREC=  0.000000000000000    
!VMRCIREC=  0.000000000000000    
!VIBSTATEREC=  0.000000000000000    
!VIBSTATECNT=  0.000000000000000    
!VIBINFO=  0.000000000000000    
!GAREC=  0.000000000000000    
!SCFORB=  21002.00000000000    
!DEFCORE=  2.000000000000000    
!SCORE=  0.000000000000000    
!NEWMOL=  0.000000000000000    
!NEWSYM=  0.000000000000000    
_SLFILES=slscratch
_NGSSTO=  9.000000000000000    
_SIN=SIN
_COS=COS
_TAN=TAN
_ACOS=ACOS
_ASIN=ASIN
_ATAN=ATAN
_COSH=COSH
_SINH=SINH
_TANH=TANH
_ABS=ABS
_MOD=MOD
_ERF=ERF
_REFC=REFC
_ERFC=ERFC
_HYPOT=HYPOT
_J0=J0
_J1=J1
_JN=JN
_GAMMA=GAMMA
_LGAMMA=LGAMMA
_Y0=Y0
_Y1=Y1
_YN=YN
_EXP=EXP
_LOG=LOG
_LOG10=LOG10
_SQRT=SQRT
_INT=INT
_NINT=NINT
_MAX=MAX
_MIN=MIN
_COSMO=  0.000000000000000    
_COSMOIT=  0.000000000000000    
_COSMOES=  0.000000000000000    
_COSMOEDS=  0.000000000000000    
_COSMOEC=  0.000000000000000    
_COSMOEDCORR=  0.000000000000000    
_FEPSI=  1.000000000000000    
_SL_IsMM=  0.000000000000000    
_SL_NSYM=  1.000000000000000    
_SL_System_BitSw=  0.000000000000000    
_SL_Unique_atoms=  0.000000000000000    
_SL_GRAD=  0.000000000000000    
_SL_MAXUPD_Hess=  5.000000000000000    
_SL_N_PRINT_COD=  5.000000000000000    
_SL_PRINT_CODES=  0.000000000000000    
_SL_BasType=  0.000000000000000    
_SL_Energy_Pred=  0.000000000000000    
_SL_New_Coords=  0.000000000000000    
_SL_Total_Nuclea=  0.000000000000000    
_SL_Highest_Mltp=  0.000000000000000    
_SL_Ref_Geom=  0.000000000000000    
_SL_Symmetry_ope=  1.000000000000000    
_SL_agrad=  0.000000000000000    
_SL_GrdMax=  0.000000000000000    
_SL_GrdNorm=  0.000000000000000    
_SL_GrdRMS=  0.000000000000000    
_SL_Hss_Q=  0.000000000000000    
_SL_Hss_X=  0.000000000000000    
_SL_BMxOld=  0.000000000000000    
_SL_KtB=  0.000000000000000    
_SL_TROld=  0.000000000000000    
_SL_No_of_Intern=  0.000000000000000    
_SL_Hess=  0.000000000000000    
_SL_K=  0.000000000000000    
!LATTICE= -1.000000000000000    
!NEWLATTICE=  0.000000000000000    
!LATGRAD_VAR=FALSE
!SEW_LATTICE=  1.000000000000000    
!AIC_ONEEL=  0.000000000000000    
!LOCAL=  0.000000000000000    
!SAVEDOM= -1.000000000000000    
!RESTDOM= -1.000000000000000    
!SAVEDOM_HF= -1.000000000000000    
!RESTDOM_HF= -1.000000000000000    
!HESSREC=  5300.200000000000    
!FREQREC=  5400.200000000000    
!NMODREC=  5450.200000000000    
!GTASKS=  0.000000000000000    
!HTASKS=  0.000000000000000    
!SAVEDOM_EOM= -1.000000000000000    
!RESTDOM_EOM= -1.000000000000000    
!GRADSTATE= -1.000000000000000    
!DEBUG=  0.000000000000000    
!CFIT_CPHF=  0.000000000000000    
!RDOMAUX_CPHF=  0.000000000000000    
!THRAO_CPHF= 0.1000000000000000E-11
!THRMO_CPHF= 0.1000000000000000E-11
!THROV_CPHF= 0.1000000000000000E-13
!THRSW_CPHF= 0.1000000000000000E-11
!THRPROD_CPHF= 0.1000000000000000E-11
!THRAOPR_CPHF= 0.1000000000000000E-11
!CFIT_SCFGRD=  0.000000000000000    
!RDOMAUX_SCFGRD=  0.000000000000000    
!THRAO_SCFGRD= 0.1000000000000000E-11
!THRMO_SCFGRD= 0.1000000000000000E-11
!THROV_SCFGRD= 0.1000000000000000E-13
!THRSW_SCFGRD= 0.1000000000000000E-11
!THRPROD_SCFGRD= 0.1000000000000000E-11
!THRAOPR_SCFGRD= 0.1000000000000000E-11
!LOCFIT_SCF=  0.000000000000000    
!LOCFIT_MP2=  0.000000000000000    
_RIDOM=  0.000000000000000    
!CC2_METHOD=  0.000000000000000    
_BASIS2006=FALSE
_SVDDEL= -1.000000000000000    
_SVDDELA= -1.000000000000000    
_SVDDELP= -1.000000000000000    
_SVDDELF= -1.000000000000000    
_SVDDELS= -1.000000000000000    
_SVDDEL_ABS= -1.000000000000000    
_SVDDELA_ABS= -1.000000000000000    
_SVDDELP_ABS= -1.000000000000000    
_SVDDELF_ABS= -1.000000000000000    
_SVDDELS_ABS= -1.000000000000000    
_MAXBASIS=  0.000000000000000    
!OPT_CONICAL=  0.000000000000000    
!CLEARSP_JGRID=  0.000000000000000    
_GRDHYBR=  0.000000000000000    
_STATEGRAD=  1.000000000000000    
_4EXT_NDISKS=  1.000000000000000    
!EMBEDFLAG=  1.000000000000000    
!EMBED=FALSE
!EMBED_F12=FALSE
!EMBEDNUC=  0.000000000000000    
_EMBEDENERGY=  0.000000000000000    
!EMBED_DFC=FALSE
!NUM_VOIDS=  0.000000000000000    
_IBODY=  0.000000000000000    
_EMBE_CORR=  0.000000000000000    
!EMBED_PROJ=FALSE
!EMB_PROJ_ZMU=  1000000.000000000    
!CORRECTION_HF=  0.000000000000000    
!EMBED_AORB=  0.000000000000000    
!EMBED_NACORR=  0.000000000000000    
!EMBED_MP2=FALSE
!EMBED_TRUNC_PERTURBATION=FALSE
!EMBED_FROZEN=  0.000000000000000    
!EMBED_ACTIVE=  0.000000000000000    
_CHANGE_BASIS=FALSE
_RESTORE_BASIS=FALSE
_FIX_EMBED_GUESS=FALSE
_EMBED_SCF=FALSE
_NEOBAS=FALSE
_NEOOVE=FALSE
_PRINEO=FALSE
_HUZINAGA_T=FALSE
_HUZINAGA_F=FALSE
_HUZINAGA=FALSE
_HUZINAGA_CORRECT=FALSE
!FASTLATGRAD=  1.000000000000000    
!FASTVLAMBDA= -1.000000000000000    
!IFORCE= -1.000000000000000    
!USESYM= -1.000000000000000    
_SINDEX=  0.000000000000000    
_AVDOM_OSV=  0.000000000000000    
_AVDOM_PNO=  0.000000000000000    
_AVDOM_PNOCC=  0.000000000000000    
_AVDOM_TNO=  0.000000000000000    
_AVDOM_TNOIT=  0.000000000000000    
_AVDOM_PAO=  0.000000000000000    
_AVDOM_LMO=  0.000000000000000    
_CC2OSV_FLAG=  0.000000000000000    
_EOMCCSD_CONV=FALSE
_TMADC2_FLAG=FALSE
_PROPADC2_FLAG=FALSE
_LEN_VirQ=  0.000000000000000    
_GRDCC2LR_FLAG=FALSE
_GRDADC2_FLAG=FALSE
_RO_VGLOBAL=  0.000000000000000    
_OPT=FALSE
_FREQ=FALSE
_HESS=FALSE
_CMRCC_callName=EMPTY
_CMRCC_callCount=  0.000000000000000    
_GECCO_CIROOT=  1.000000000000000    
_SYM_CATION=  1.000000000000000    
_MON_A=FALSE
_MON_B=FALSE
_MAXGEOM=  100.0000000000000    
!MAXGEOM=  100.0000000000000    
_NCORE=  0.000000000000000    
_NLARGECORE=  0.000000000000000    
R1= 0.9400492560903824    
R2= 0.9450212484328318    
PHI=  105.4858609443667    
D1=  2.034878621878777    
R3= 0.9419172332095579    
R4= 0.9418254062655934    
THETA=  176.2943506123414    
PHI1=  119.0075983231467    
PHI2=  112.0926915013431    
OMEGA=  180.0000000000067    
THETA1= -61.72247045680930    
THETA2= -117.8662342723395    
GX1=  1.286518947638912    
GY1=-0.8550785587737617    
GZ1= -3.501240864550808    
GX2=-0.1007542354528307    
GY2= 0.6597586909803355E-01
GZ2= -2.882487738374633    
GX3= 0.2739020187326197E-01
GY3=-0.1669543521284794E-01
GZ3= -1.103179434883126    
GX4= 0.9640603709450291E-01
GY4=-0.5743621543081157E-01
GZ4=  2.741348605379753    
GX5= 0.9476042884160596E-01
GY5=  1.589649103751231    
GZ5=  3.416170649011369    
GX6= -1.339660532732160    
GY6=-0.8534055757070123    
GZ6=  3.428229537537026    
H1X1=  1.286518947638912    
H1Y1=-0.8550785587737617    
H1Z1= -3.501240864550808    
O1X2=-0.1007542354528307    
O1Y2= 0.6597586909803355E-01
O1Z2= -2.882487738374633    
H2X3= 0.2739020187326197E-01
H2Y3=-0.1669543521284794E-01
H2Z3= -1.103179434883126    
O2X4= 0.9640603709450291E-01
O2Y4=-0.5743621543081157E-01
O2Z4=  2.741348605379753    
H3X5= 0.9476042884160596E-01
H3Y5=  1.589649103751231    
H3Z5=  3.416170649011369    
H4X6= -1.339660532732160    
H4Y6=-0.8534055757070123    
H4Z6=  3.428229537537026    
[Atoms] Angs
H     1    1         0.6807965085       -0.4524880868       -1.8527768754
O     2    8        -0.0533168453        0.0349129264       -1.5253468219
H     3    1         0.0144942706       -0.0088348438       -0.5837774165
O     4    8         0.0510158778       -0.0303939363        1.4506592091
H     5    1         0.0501450594        0.8412060790        1.8077596560
H     6    1        -0.7089178243       -0.4516027823        1.8141409450
[GTO]
   1 0
 s    3  1.00
  0.3386500000D+02  0.2549381454D-01
  0.5094790000D+01  0.1903731086D+00
  0.1158790000D+01  0.8521614860D+00
 s    1  1.00
  0.3258400000D+00  0.1000000000D+01
 s    1  1.00
  0.1027410000D+00  0.1000000000D+01
 p    1  1.00
  0.7500000000D+00  0.1000000000D+01
  
   2 0
 s    6  1.00
  0.8588500000D+04  0.1895150083D-02
  0.1297230000D+04  0.1438590063D-01
  0.2992960000D+03  0.7073200310D-01
  0.8737710000D+02  0.2400010105D+00
  0.2567890000D+02  0.5947970261D+00
  0.3740040000D+01  0.2808020123D+00
 s    3  1.00
  0.4211750000D+02  0.1138890124D+00
  0.9628370000D+01  0.9208111006D+00
  0.2853320000D+01 -0.3274470358D-02
 s    1  1.00
  0.9056610000D+00  0.1000000000D+01
 s    1  1.00
  0.2556110000D+00  0.1000000000D+01
 p    3  1.00
  0.4211750000D+02  0.3651139738D-01
  0.9628370000D+01  0.2371529830D+00
  0.2853320000D+01  0.8197019412D+00
 p    1  1.00
  0.9056610000D+00  0.1000000000D+01
 p    1  1.00
  0.2556110000D+00  0.1000000000D+01
 d    1  1.00
  0.1292000000D+01  0.1000000000D+01
  
   3 0
 s    3  1.00
  0.3386500000D+02  0.2549381454D-01
  0.5094790000D+01  0.1903731086D+00
  0.1158790000D+01  0.8521614860D+00
 s    1  1.00
  0.3258400000D+00  0.1000000000D+01
 s    1  1.00
  0.1027410000D+00  0.1000000000D+01
 p    1  1.00
  0.7500000000D+00  0.1000000000D+01
  
   4 0
 s    6  1.00
  0.8588500000D+04  0.1895150083D-02
  0.1297230000D+04  0.1438590063D-01
  0.2992960000D+03  0.7073200310D-01
  0.8737710000D+02  0.2400010105D+00
  0.2567890000D+02  0.5947970261D+00
  0.3740040000D+01  0.2808020123D+00
 s    3  1.00
  0.4211750000D+02  0.1138890124D+00
  0.9628370000D+01  0.9208111006D+00
  0.2853320000D+01 -0.3274470358D-02
 s    1  1.00
  0.9056610000D+00  0.1000000000D+01
 s    1  1.00
  0.2556110000D+00  0.1000000000D+01
 p    3  1.00
  0.4211750000D+02  0.3651139738D-01
  0.9628370000D+01  0.2371529830D+00
  0.2853320000D+01  0.8197019412D+00
 p    1  1.00
  0.9056610000D+00  0.1000000000D+01
 p    1  1.00
  0.2556110000D+00  0.1000000000D+01
 d    1  1.00
  0.1292000000D+01  0.1000000000D+01
  
   5 0
 s    3  1.00
  0.3386500000D+02  0.2549381454D-01
  0.5094790000D+01  0.1903731086D+00
  0.1158790000D+01  0.8521614860D+00
 s    1  1.00
  0.3258400000D+00  0.1000000000D+01
 s    1  1.00
  0.1027410000D+00  0.1000000000D+01
 p    1  1.00
  0.7500000000D+00  0.1000000000D+01
  
   6 0
 s    3  1.00
  0.3386500000D+02  0.2549381454D-01
  0.5094790000D+01  0.1903731086D+00
  0.1158790000D+01  0.8521614860D+00
 s    1  1.00
  0.3258400000D+00  0.1000000000D+01
 s    1  1.00
  0.1027410000D+00  0.1000000000D+01
 p    1  1.00
  0.7500000000D+00  0.1000000000D+01


[MO]
 Sym=      1.1
 Ene=     -20.5725
 Spin= Alpha
 Occup=    2.000000
1 0.000002134927017
2 0.000059638416253
3 -0.000080563415253
4 -0.000014722461905
5 0.000009768635209
6 0.000015846657453
7 -0.000020654406205
8 -0.000024907734994
9 0.000063125053333
10 -0.000240983034618
11 0.000004470154665
12 -0.000002946926955
13 -0.000010325816275
14 -0.000018472377214
15 0.000012217895873
16 0.000037909781894
17 -0.000008219032936
18 0.000005377635033
19 -0.000137632372222
20 -0.000002112223256
21 0.000003446510325
22 -0.000001334287068
23 0.000007620775250
24 0.000002616731929
25 -0.000001770829661
26 -0.000031669203683
27 0.000164056776553
28 0.000198001224988
29 0.000000951310699
30 -0.000000478565520
31 0.000029331068768
32 0.55142966870287
33 0.47167114305298
34 0.005605443635988
35 -0.000559616926274
36 -0.001172904452413
37 0.000693253130279
38 0.001028634543733
39 0.000410462372601
40 -0.000242759972138
41 -0.000403923306725
42 -0.000045984549221
43 0.000026479169463
44 0.000150758651141
45 0.000005671948993
46 -0.000061462864810
47 0.000055790915817
48 -0.000068645284673
49 0.000063784354916
50 -0.000036650561518
51 0.000195426161471
52 0.000140441728174
53 0.000052140508040
54 -0.000031017861844
55 -0.000067659011992
56 -0.000028654026842
57 0.000195692015507
58 0.000138599699340
59 0.000053245093139
60 0.000043523082555
61 0.000059888289299
62 -0.000029150136455
 Sym=      2.1
 Ene=     -20.5091
 Spin= Alpha
 Occup=    2.000000
1 0.000206999969469
2 0.000113112693345
3 0.000042070664636
4 -0.000044560952004
5 0.000029639935811
6 0.000058172417700
7 0.55142468399457
8 0.47167097807361
9 0.005621178093563
10 -0.000571588328874
11 0.001233201607016
12 -0.000817472918055
13 0.000859644157031
14 -0.000432750553592
15 0.000286956040319
16 -0.000267321325781
17 0.000064196415570
18 -0.000042784347076
19 -0.000027833096139
20 -0.000002021504080
21 0.000059868681834
22 -0.000057847177754
23 0.000084898456119
24 0.000039932971498
25 -0.000026692450762
26 0.000196414983399
27 0.000114359073413
28 0.000235253606055
29 0.000021919347816
30 -0.000014696199880
31 -0.000059406890778
32 0.000021233045604
33 0.000016259770321
34 0.000018022525666
35 -0.000063609467781
36 -0.000002581612332
37 0.000001556464877
38 0.000010152061361
39 0.000010058914918
40 -0.000005921551287
41 -0.000030088535319
42 -0.000004945354403
43 0.000003835745649
44 0.000084404668960
45 0.000001454901646
46 -0.000000579700650
47 -0.000000875200996
48 -0.000002327215244
49 -0.000000532829566
50 0.000000423851809
51 -0.000003259321031
52 0.000022691304179
53 -0.000034635301043
54 0.000000286207042
55 -0.000001661202861
56 -0.000010777085634
57 -0.000003574766906
58 0.000024430020707
59 -0.000035518860962
60 0.000001864657033
61 0.000000531796278
62 -0.000011080478894
 Sym=      3.1
 Ene=      -1.3787
 Spin= Alpha
 Occup=    2.000000
1 0.005346191296848
2 0.003099402054780
3 0.001646575123768
4 -0.000992400431460
5 0.000659117973566
6 0.000465459216560
7 -0.006686828288192
8 -0.011115854608345
9 0.030849004087337
10 0.023246629155174
11 0.001406892038142
12 -0.000932126305234
13 0.002436204254837
14 0.002597475980160
15 -0.001719131658872
16 0.003014033391840
17 0.000818091741484
18 -0.000546656123432
19 0.003328388557275
20 -0.000088136910901
21 -0.000386021020839
22 0.000474157931740
23 -0.000408437445162
24 -0.000031416421569
25 0.000022499317331
26 0.008723259503613
27 0.006590273679315
28 -0.001481802933438
29 -0.000017088903593
30 0.000003879392479
31 -0.001718266525097
32 -0.11336772365362
33 -0.18938429767482
34 0.53779601319490
35 0.37622641486872
36 -0.025182041739919
37 0.014882426190829
38 0.022522252759853
39 -0.042091693232191
40 0.024880019494254
41 0.037637494216880
42 -0.014344018803289
43 0.008442053944662
44 0.008108916459253
45 -0.000022429191148
46 0.003642638960387
47 -0.003620209769239
48 0.003739971550943
49 -0.005348913536175
50 0.003084531182520
51 0.095593281133003
52 0.078230002425661
53 -0.002831458659010
54 -0.002278644342165
55 -0.026049894075774
56 -0.008563563358589
57 0.095629812654189
58 0.078256456624602
59 -0.002821057694054
60 0.021602860169123
61 0.014614314745668
62 -0.008767881582211
 Sym=      4.1
 Ene=      -1.3184
 Spin= Alpha
 Occup=    2.000000
1 0.097114246061433
2 0.081031363212435
3 0.000545778842120
4 -0.020523655616085
5 0.013624497735389
6 0.011977812112401
7 -0.11316304782320
8 -0.18897057866012
9 0.53520429076328
10 0.37950379968303
11 0.026609173922555
12 -0.017632442668305
13 0.019761204976044
14 0.044552804254814
15 -0.029520663099020
16 0.032477701041396
17 0.013927680522296
18 -0.009256284828196
19 0.013325355379304
20 -0.000008671720644
21 -0.004667132312164
22 0.004675804032808
23 -0.006383531156957
24 -0.001349630656149
25 0.000913170166402
26 0.093999079737433
27 0.075039837388140
28 -0.008516104835873
29 0.000204252218016
30 -0.000183937737875
31 -0.027900894802116
32 0.007527864528280
33 0.012613591486169
34 -0.036311136271602
35 -0.023140615399881
36 0.001929503152064
37 -0.001141276380625
38 -0.003908164756518
39 0.002943569973747
40 -0.001740096637385
41 -0.004645875151869
42 0.001039926549530
43 -0.000630183360098
44 -0.005843603134653
45 -0.000011819650267
46 -0.000240301429071
47 0.000252121079338
48 -0.000231730895637
49 0.000462520123500
50 -0.000268316931640
51 -0.006907951964747
52 -0.007129907189724
53 0.002155340107782
54 0.000210324516385
55 0.002006178937936
56 0.000763746050888
57 -0.006914854172092
58 -0.007163521163968
59 0.002170525840954
60 -0.001649477324024
61 -0.001155707926189
62 0.000786798157935
 Sym=      5.1
 Ene=      -0.7453
 Spin= Alpha
 Occup=    2.000000
1 -0.000339496948629
2 -0.000326565966849
3 -0.000214625682992
4 0.000069063023265
5 0.000005607586714
6 -0.000010601589195
7 0.000007167293368
8 0.000012329741290
9 -0.000034745948776
10 -0.000062924661082
11 0.000700713652408
12 0.001574400976455
13 0.000373604834711
14 0.000813158655636
15 0.001986207741221
16 0.000576135953684
17 0.001489720529455
18 0.002900861649044
19 0.000340143247254
20 0.000038378998189
21 -0.000086640670985
22 0.000048261672796
23 0.000067372619934
24 0.000075939464810
25 0.000069326860631
26 0.000315407273296
27 0.000441415803751
28 0.000153761533833
29 0.000559826249223
30 0.000986055049844
31 -0.000051678799837
32 -0.000015898700297
33 -0.000027289277485
34 0.000083049934183
35 0.000204246709386
36 0.11597106125130
37 0.19747045009845
38 -0.001062323371811
39 0.17816365098082
40 0.30337243159924
41 -0.001637354565154
42 0.11079510140145
43 0.18875976109146
44 -0.000997870814104
45 -0.017262471736469
46 0.017390964711627
47 -0.000128492975158
48 -0.011079502715685
49 0.009070747948164
50 0.015245065770892
51 0.15049470255077
52 0.20565769729909
53 0.049355355004661
54 0.007389405177396
55 -0.026091349078581
56 -0.016197848740038
57 -0.15055913919179
58 -0.20585534145196
59 -0.049434053479951
60 -0.026333438410492
61 -0.006140278389844
62 0.016357682436959
 Sym=      6.1
 Ene=      -0.6920
 Spin= Alpha
 Occup=    2.000000
1 -0.14583345776734
2 -0.20445347024850
3 -0.057613466227297
4 0.025358137928781
5 -0.016807797792678
6 -0.001080186800555
7 0.000485809874437
8 0.000815907729388
9 -0.002187809969005
10 -0.000358870000667
11 -0.094837222951697
12 0.063150787081997
13 0.18914254299634
14 -0.14563225642513
15 0.096978789651933
16 0.28961962410662
17 -0.087609297635939
18 0.058336582273819
19 0.18120732059287
20 -0.015040535787404
21 -0.006629364453742
22 0.021669900241146
23 0.011542437292398
24 0.010326098464480
25 -0.006819705481670
26 0.14736689419395
27 0.19665945595695
28 0.061711672519881
29 -0.009168616736152
30 0.006011591134572
31 -0.030186093720059
32 -0.003567393992940
33 -0.006100125354022
34 0.018684902889049
35 0.040827754743413
36 0.013496008794457
37 -0.008814666199051
38 -0.051903494081070
39 0.020273856880960
40 -0.013273343352670
41 -0.079887706797977
42 0.011370019981122
43 -0.007597194493273
44 -0.066134423947008
45 0.000028703085377
46 -0.000167044449083
47 0.000138341363706
48 -0.000061726240073
49 0.002945947441742
50 -0.001791027283844
51 -0.018172441929353
52 -0.028645464797792
53 -0.004618750332250
54 0.002168781462622
55 0.005732102467129
56 -0.003120041568712
57 -0.017442746528406
58 -0.027565595413353
59 -0.004480653538403
60 -0.003830405546091
61 -0.004685143726925
62 -0.003128448560615
 Sym=      7.1
 Ene=      -0.6054
 Spin= Alpha
 Occup=    2.000000
1 0.046182097545615
2 0.066951780944228
3 0.012631854819238
4 -0.006392647771866
5 0.004251260797625
6 0.004996661772259
7 0.010419208986958
8 0.017555668556822
9 -0.049915703034396
10 -0.098815118525750
11 0.053701317671536
12 -0.035424493463056
13 -0.017979235388612
14 0.078867766355558
15 -0.052064398457892
16 -0.029164769650868
17 0.067529859571797
18 -0.044395318096262
19 -0.018664504240387
20 0.003920827734959
21 0.000461538709915
22 -0.004382366444874
23 -0.004710272973221
24 -0.000562171293452
25 0.000380176339985
26 -0.009236562732200
27 -0.006977121885687
28 0.037597136102423
29 0.006109067511489
30 -0.003960071865925
31 0.004155228989695
32 -0.035444794749324
33 -0.060258371791178
34 0.18201454734316
35 0.30854492427922
36 0.16257302788557
37 -0.096185142056894
38 -0.15657977387382
39 0.24121991737052
40 -0.14272911140922
41 -0.23541839605685
42 0.21803257080929
43 -0.12924968734041
44 -0.20762004132919
45 -0.003135086429348
46 0.000854457222121
47 0.002280629207227
48 0.004263363016239
49 0.013313955488234
50 -0.007820914827957
51 -0.084672060431200
52 -0.12960301042995
53 -0.032291495596298
54 0.019365978973427
55 0.020466176734517
56 -0.005478247038142
57 -0.084724277907245
58 -0.13016917430154
59 -0.031853963193262
60 -0.008512439199270
61 -0.026921755889247
62 -0.005216808820993
 Sym=      8.1
 Ene=      -0.5478
 Spin= Alpha
 Occup=    2.000000
1 0.081134588706481
2 0.13624306405864
3 0.027400339070633
4 -0.006596043648588
5 0.004374841750552
6 0.024442209673454
7 0.032781782368811
8 0.055764542398202
9 -0.16891473075877
10 -0.27963776967700
11 0.15668476192132
12 -0.10412601936185
13 0.10778811009727
14 0.23247664193050
15 -0.15444826376500
16 0.15777149152940
17 0.20795370418907
18 -0.13835696599459
19 0.15530382313556
20 0.003766092509260
21 -0.004404283690223
22 0.000638191180964
23 -0.011199094642539
24 0.007002613329595
25 -0.004642503109620
26 0.068866087121216
27 0.10275814281429
28 0.014674446417471
29 0.015279919239597
30 -0.010276693636245
31 -0.015434262741135
32 0.009192303889493
33 0.015700513942448
34 -0.048919505559484
35 -0.072001384077413
36 -0.11023817342130
37 0.064441544734245
38 -0.075546223909668
39 -0.16568990760708
40 0.096844125004287
41 -0.11362211934210
42 -0.16426952479838
43 0.095626921188230
44 -0.12972551054331
45 0.005094026667591
46 0.000829835677793
47 -0.005923862345384
48 -0.004394273743068
49 -0.001041151663339
50 0.000583110740251
51 0.016057469670280
52 0.029512184669022
53 0.004956343594248
54 -0.012560978540888
55 0.000439786725170
56 -0.009479715871305
57 0.016039281094649
58 0.028612223837171
59 0.006056122856914
60 -0.006637918363645
61 0.010693996345778
62 -0.009485007203967
 Sym=      9.1
 Ene=      -0.5242
 Spin= Alpha
 Occup=    2.000000
1 0.025271523327797
2 0.041277301091837
3 0.018924176824370
4 0.000448400725550
5 -0.000227946159970
6 0.015988531903147
7 0.014690240139946
8 0.025039543615669
9 -0.077341362823145
10 -0.12654271950851
11 0.076501466029967
12 -0.049944877285140
13 0.099029371991126
14 0.11288682998075
15 -0.073746671217991
16 0.14814483366208
17 0.10823366596727
18 -0.070440599670112
19 0.13197885176424
20 -0.000030881546850
21 -0.003590947276537
22 0.003621828823387
23 -0.004782474548960
24 0.005810743381776
25 -0.003821211301566
26 0.054127028465686
27 0.094519150362671
28 -0.034405921804147
29 0.009131127725928
30 -0.005923776006463
31 -0.015911646504828
32 0.002984042974434
33 0.005042567093246
34 -0.013323747421405
35 -0.038588423573585
36 0.12685534821642
37 -0.073439380743001
38 0.20715438427531
39 0.19051705613945
40 -0.11029787365364
41 0.31190394099129
42 0.20935854403344
43 -0.12141898852063
44 0.32173844010040
45 -0.008705482734978
46 -0.003055709159354
47 0.011761191894332
48 0.005814379801524
49 -0.003868541710543
50 0.002334047244824
51 0.006579566226309
52 0.014978906577308
53 0.009624413699495
54 0.012631814566796
55 -0.011553103429517
56 0.020688000338731
57 0.006580445812216
58 0.014690595070638
59 0.009880935165786
60 0.016308928675005
61 -0.005251524146643
62 0.020692984869684
 Sym=     10.1
 Ene=      -0.4716
 Spin= Alpha
 Occup=    2.000000
1 0.000011236952226
2 0.000131801726412
3 -0.000093589163931
4 0.017316657358714
5 0.026149028430171
6 -0.000028391456438
7 -0.000011457351160
8 -0.000020505759562
9 0.000096385576391
10 -0.000127530893039
11 0.16048270756301
12 0.24196786594968
13 -0.000381283627077
14 0.23973934462441
15 0.36147953178379
16 -0.000571311709030
17 0.26006679602460
18 0.39227271528931
19 -0.000668728159230
20 0.011288465919158
21 -0.011268487713468
22 -0.000019978205690
23 0.005504736472942
24 0.004807823639016
25 0.007285219169610
26 -0.000019144162685
27 0.000033786319837
28 0.000068664882631
29 0.016357055333632
30 0.024669377807779
31 -0.000051126221283
32 0.000032264090718
33 0.000056088466129
34 -0.000135220384486
35 -0.000977435173001
36 -0.002055055484739
37 -0.002247144617546
38 -0.000383324564162
39 -0.003073146295649
40 -0.003231459728279
41 -0.000632991554023
42 0.003254937004318
43 0.006184888323291
44 -0.000950060932695
45 -0.000216986387832
46 0.000232560091343
47 -0.000015573703511
48 -0.000186208915389
49 -0.000039427991893
50 -0.000078790700315
51 -0.000937623548185
52 -0.016041229415473
53 0.017401528899279
54 -0.001022069213000
55 0.001332818542999
56 0.000753679173369
57 0.001052696006528
58 0.017779428884037
59 -0.017886404208737
60 0.001714092214848
61 0.000088022033851
62 -0.000936408647614
 Sym=     11.1
 Ene=       0.1339
 Spin= Alpha
 Occup=    0.000000
1 0.013759923756865
2 -0.045527828025113
3 0.34290656886223
4 0.001623992232605
5 -0.001070031371612
6 -0.007601522642045
7 0.011979374584074
8 0.020143934306024
9 -0.053712465261744
10 -0.17274572751969
11 -0.015999796625718
12 0.010781375821254
13 -0.020563869117588
14 -0.019724659694068
15 0.013380691113989
16 -0.037981953043905
17 -0.045978397466374
18 0.030716499694866
19 0.009184233369475
20 -0.000915602589685
21 -0.000538204007144
22 0.001453806596829
23 0.000508812145276
24 -0.001374713920995
25 0.000893384708012
26 0.010731095262194
27 -0.061040068785897
28 0.063918742880777
29 -0.000711070057146
30 0.000509895742680
31 0.009760941185249
32 0.033953720307583
33 0.055823903369681
34 -0.11476786210360
35 -0.81445099281791
36 0.044431479272547
37 -0.025967069178718
38 -0.035846693443949
39 0.070123581200844
40 -0.041113200353420
41 -0.053823162406167
42 0.12747654900005
43 -0.074487833057952
44 -0.11478886218549
45 -0.000884221217813
46 -0.000850437583384
47 0.001734658801197