[Molden Format]
[Molpro variables]
_NUMVAR=  1088.000000000000    
_AVOGAD= 0.6022140760000000E+24
_BOLTZ= 0.1380649000000000E-22
_CLIGHTSI=  299792458.0000000    
_JOULE= 0.4359744722207100E-17
_JPCAL=  4.184000000000000    
_PLANCK= 0.6626070150000000E-33
_BOHR= 0.5291772109030000E-10
_ECHARG= 0.1602176634000000E-18
_ENULL= 0.8854187812800001E-11
_MU= 0.1660539066600000E-26
_EMASS= 0.9109383701500001E-30
_AMU2AU=  1822.888486217313    
_CLIGHT=  29979245800.00000    
_EV= 0.3674932217565494E-01
_KJOULE= 0.3808798847133432E-03
_KJOULE/MOL= 0.3808798847133432E-03
_CM= 0.4556335252912009E-05
_CM-1= 0.4556335252912009E-05
_DEB2SI= 0.3335640951981520E-29
_KCAL= 0.1593601437640628E-02
_KCAL/MOL= 0.1593601437640628E-02
_KELVIN= 0.3166811563455608E-05
_HERTZ= 0.1519829846057038E-15
_HZ= 0.1519829846057038E-15
_TOA= 0.5291772109030000    
_TOANG= 0.5291772109030000    
_TORAD= 0.1745329251994330E-01
_TOCM=  219474.6313631965    
_TODEBYE=  2.541746473194078    
_TOE= 0.4803204712570263E-09
_TOEV=  27.21138624598803    
_TOHERTZ=  6579683920501656.    
_TOHZ=  6579683920501656.    
_TOK=  315775.0248040668    
_TOKCAL=  627.5094740630558    
_TOKELVIN=  315775.0248040668    
_TOKJ=  2625.499639479825    
_TOKJOULE=  2625.499639479825    
_TOKG= 0.1660539066600000E-26
_ANG=  1.889726124625770    
_ANGSTROM=  1.889726124625770    
_RPAREF=  0.000000000000000    
_RPADISS=  0.000000000000000    
_IGNORE_UNDEF=  2.000000000000000    
_STRICTCHECK=  0.000000000000000    
!SEWARD=  0.000000000000000    
!MULTI=  0.000000000000000    
!DFMULTI=  0.000000000000000    
!NUMHESS=  0.000000000000000    
_SEW_ONEEL=  0.000000000000000    
_CPPDONE=FALSE
_DKROLL_DONE=  0.000000000000000    
_FNUC_DONE=  0.000000000000000    
_FOCKDONE=TRUE
_GRADONE=FALSE
_HESSDONE=TRUE
_INTDONE=TRUE
_SCFDONE=TRUE
_MODUL_BLOCK=FALSE
_MODUL_SLATER=TRUE
_MODUL_MRCC=FALSE
_MODUL_NBO6=FALSE
_MODUL_NECI=FALSE
_MODUL_AIMS=TRUE
_MODUL_HDF5=FALSE
_MODUL_GECCO=FALSE
_ISWINDOWS=FALSE
_MRCC_EXEC=
_FITC_AO_SAVED=FALSE
_FITC_MO_SAVED=FALSE
_LSTYP=SEWARD
_INTYP=INTS
_GEOMTYP=ZMAT
_GRADTYP=ALASKA
_DIRECT=FALSE
_DKHO= -1.000000000000000    
_FNUC=  0.000000000000000    
_SYNCM=  0.000000000000000    
_BASIS=6-311G(D,P)
_ZCENTRE=MASS
_ZORIENT=  1.000000000000000    
_NELEC=  20.00000000000000    
!SPIN=  0.000000000000000    
_OPTCONV= 0.4884887930084803E-01
_QSDSTEP=  0.000000000000000    
_QSDIRC=  0.000000000000000    
_PROGRAM=FREQ
_CPUSTEP=  1.079999999999998    
_SYSSTEP= 0.5999999999999961E-01
_WALLSTEP=  1.140000000000000    
!DFSCF=  0.000000000000000    
!SCSGRD=  0.000000000000000    
_NCEN=  6.000000000000000    
_CPUTOT=  35.46000000000000    
_DFTEXFAC=  1.000000000000000    
_DMX= 0.1118124802306657E-01
_DMY=-0.8162663448841653E-01
_DMZ=  1.208931660396267    
_DMX_SCF= 0.1118124802306657E-01
_DMY_SCF=-0.8162663448841653E-01
_DMZ_SCF=  1.208931660396267    
_FREQUENCIES= 0.4809604366687986E-04
_HOMO=  10.10000000000000    
_EHOMO=-0.4711990965479463    
_LUMO=  11.10000000000000    
_ELUMO= 0.1337374006630707    
_ENERGY= -152.1029062784939    
_ENERGY_METHOD=HF
_ENERGY_BASIS=6-311G(D,P)
_GEOMETRY_METHOD=HF
_GEOMETRY_BASIS=6-311G(D,P)
_ENUC=  36.52476145343572    
_GRADENERG= -152.1029021872964    
_GRADEXFAC=  9999.000000000000    
_GRADMETHOD=  1.000000000000000    
_NMRMETHOD=  0.000000000000000    
_NMRMAGNET=  0.000000000000000    
_VIRIAL=-0.2362768449414594E-02
!GRID_FREEZE= -1.000000000000000    
!NEESE_INDEX=  0.000000000000000    
_ITERATIONS=  2.000000000000000    
_LASTNELEC=  20.00000000000000    
_LASTSPIN=  0.000000000000000    
_LASTSYM=  1.000000000000000    
_MPP_PROG=  1.000000000000000    
_MSNSTATES=  0.000000000000000    
_RS2PHASE=  0.000000000000000    
_NPROC_MPP=  5.000000000000000    
_NPROC_SMP=  6.000000000000000    
_NUMSTEP=  0.000000000000000    
_OPTCONVMX= 0.3490658503988659E-01
_OPTCONVRMS= 0.4070739941737336E-02
_OPTGRAD= 0.1610148951780477E-02
_OPTGRADMX= 0.7177516420790126E-03
_OPTGRADRMS= 0.4648099653729261E-03
_OPTSTEP= -100.0000000000000    
_ORBITAL=  2100.200000000000    
_PI=  3.141592653589793    
_SEIG_MIN= 0.1391249295435903E-01
_SEWPROP=TRUE
_STATUS=  1.000000000000000    
_SYSTOT=  5.380000000000000    
_VERSION=  2024001.000000000    
_WALLTOT=  41.13000000000000    
_ZPE= 0.4947293856391957E-01
_DATE=01-May-24
_LASTORB=0
_OUTPUT=/home/lme/Bachelor_Thesis_Lukas_Meinschad/Rechnungen/h2o_dimer/h2o_dimer.out
_PGROUP=C1
_TIME=08:42:03
_LIBMOL=/usr/local/molpro/molpro_2024.1.0_sockets/lib/
_VIGRDC=  0.000000000000000    
!VIBCNT=  0.000000000000000    
!SURFREC=  0.000000000000000    
!XSURFREC=  0.000000000000000    
!XPOLYREC=  0.000000000000000    
!ROTREC=  0.000000000000000    
!POLYREC=  0.000000000000000    
!DIPREC=  0.000000000000000    
!DIP4DREC=  0.000000000000000    
!DIPROT=  0.000000000000000    
!DIP4DROT=  0.000000000000000    
!PTREC=  0.000000000000000    
!PT4DREC=  0.000000000000000    
!VSCFREC=  0.000000000000000    
!VCIREC=  0.000000000000000    
!PVCIREC=  0.000000000000000    
!VMP2REC=  0.000000000000000    
!VMCSCFREC=  0.000000000000000    
!VMRCIREC=  0.000000000000000    
!VIBSTATEREC=  0.000000000000000    
!VIBSTATECNT=  0.000000000000000    
!VIBINFO=  0.000000000000000    
!GAREC=  0.000000000000000    
!SCFORB=  21002.00000000000    
!DEFCORE=  2.000000000000000    
!SCORE=  0.000000000000000    
!NEWMOL=  0.000000000000000    
!NEWSYM=  0.000000000000000    
_SLFILES=slscratch
_NGSSTO=  9.000000000000000    
_SIN=SIN
_COS=COS
_TAN=TAN
_ACOS=ACOS
_ASIN=ASIN
_ATAN=ATAN
_COSH=COSH
_SINH=SINH
_TANH=TANH
_ABS=ABS
_MOD=MOD
_ERF=ERF
_REFC=REFC
_ERFC=ERFC
_HYPOT=HYPOT
_J0=J0
_J1=J1
_JN=JN
_GAMMA=GAMMA
_LGAMMA=LGAMMA
_Y0=Y0
_Y1=Y1
_YN=YN
_EXP=EXP
_LOG=LOG
_LOG10=LOG10
_SQRT=SQRT
_INT=INT
_NINT=NINT
_MAX=MAX
_MIN=MIN
_COSMO=  0.000000000000000    
_COSMOIT=  0.000000000000000    
_COSMOES=  0.000000000000000    
_COSMOEDS=  0.000000000000000    
_COSMOEC=  0.000000000000000    
_COSMOEDCORR=  0.000000000000000    
_FEPSI=  1.000000000000000    
_SL_IsMM=  0.000000000000000    
_SL_NSYM=  1.000000000000000    
_SL_System_BitSw=  0.000000000000000    
_SL_Unique_atoms=  0.000000000000000    
_SL_GRAD=  0.000000000000000    
_SL_MAXUPD_Hess=  5.000000000000000    
_SL_N_PRINT_COD=  5.000000000000000    
_SL_PRINT_CODES=  0.000000000000000    
_SL_BasType=  0.000000000000000    
_SL_Energy_Pred=  0.000000000000000    
_SL_New_Coords=  0.000000000000000    
_SL_Total_Nuclea=  0.000000000000000    
_SL_Highest_Mltp=  0.000000000000000    
_SL_Ref_Geom=  0.000000000000000    
_SL_Symmetry_ope=  1.000000000000000    
_SL_agrad=  0.000000000000000    
_SL_GrdMax=  0.000000000000000    
_SL_GrdNorm=  0.000000000000000    
_SL_GrdRMS=  0.000000000000000    
_SL_Hss_Q=  0.000000000000000    
_SL_Hss_X=  0.000000000000000    
_SL_BMxOld=  0.000000000000000    
_SL_KtB=  0.000000000000000    
_SL_TROld=  0.000000000000000    
_SL_No_of_Intern=  0.000000000000000    
_SL_Hess=  0.000000000000000    
_SL_K=  0.000000000000000    
!LATTICE= -1.000000000000000    
!NEWLATTICE=  0.000000000000000    
!LATGRAD_VAR=FALSE
!SEW_LATTICE=  1.000000000000000    
!AIC_ONEEL=  0.000000000000000    
!LOCAL=  0.000000000000000    
!SAVEDOM= -1.000000000000000    
!RESTDOM= -1.000000000000000    
!SAVEDOM_HF= -1.000000000000000    
!RESTDOM_HF= -1.000000000000000    
!HESSREC=  5300.200000000000    
!FREQREC=  5400.200000000000    
!NMODREC=  5450.200000000000    
!GTASKS=  0.000000000000000    
!HTASKS=  0.000000000000000    
!SAVEDOM_EOM= -1.000000000000000    
!RESTDOM_EOM= -1.000000000000000    
!GRADSTATE= -1.000000000000000    
!DEBUG=  0.000000000000000    
!CFIT_CPHF=  0.000000000000000    
!RDOMAUX_CPHF=  0.000000000000000    
!THRAO_CPHF= 0.1000000000000000E-11
!THRMO_CPHF= 0.1000000000000000E-11
!THROV_CPHF= 0.1000000000000000E-13
!THRSW_CPHF= 0.1000000000000000E-11
!THRPROD_CPHF= 0.1000000000000000E-11
!THRAOPR_CPHF= 0.1000000000000000E-11
!CFIT_SCFGRD=  0.000000000000000    
!RDOMAUX_SCFGRD=  0.000000000000000    
!THRAO_SCFGRD= 0.1000000000000000E-11
!THRMO_SCFGRD= 0.1000000000000000E-11
!THROV_SCFGRD= 0.1000000000000000E-13
!THRSW_SCFGRD= 0.1000000000000000E-11
!THRPROD_SCFGRD= 0.1000000000000000E-11
!THRAOPR_SCFGRD= 0.1000000000000000E-11
!LOCFIT_SCF=  0.000000000000000    
!LOCFIT_MP2=  0.000000000000000    
_RIDOM=  0.000000000000000    
!CC2_METHOD=  0.000000000000000    
_BASIS2006=FALSE
_SVDDEL= -1.000000000000000    
_SVDDELA= -1.000000000000000    
_SVDDELP= -1.000000000000000    
_SVDDELF= -1.000000000000000    
_SVDDELS= -1.000000000000000    
_SVDDEL_ABS= -1.000000000000000    
_SVDDELA_ABS= -1.000000000000000    
_SVDDELP_ABS= -1.000000000000000    
_SVDDELF_ABS= -1.000000000000000    
_SVDDELS_ABS= -1.000000000000000    
_MAXBASIS=  0.000000000000000    
!OPT_CONICAL=  0.000000000000000    
!CLEARSP_JGRID=  0.000000000000000    
_GRDHYBR=  0.000000000000000    
_STATEGRAD=  1.000000000000000    
_4EXT_NDISKS=  1.000000000000000    
!EMBEDFLAG=  1.000000000000000    
!EMBED=FALSE
!EMBED_F12=FALSE
!EMBEDNUC=  0.000000000000000    
_EMBEDENERGY=  0.000000000000000    
!EMBED_DFC=FALSE
!NUM_VOIDS=  0.000000000000000    
_IBODY=  0.000000000000000    
_EMBE_CORR=  0.000000000000000    
!EMBED_PROJ=FALSE
!EMB_PROJ_ZMU=  1000000.000000000    
!CORRECTION_HF=  0.000000000000000    
!EMBED_AORB=  0.000000000000000    
!EMBED_NACORR=  0.000000000000000    
!EMBED_MP2=FALSE
!EMBED_TRUNC_PERTURBATION=FALSE
!EMBED_FROZEN=  0.000000000000000    
!EMBED_ACTIVE=  0.000000000000000    
_CHANGE_BASIS=FALSE
_RESTORE_BASIS=FALSE
_FIX_EMBED_GUESS=FALSE
_EMBED_SCF=FALSE
_NEOBAS=FALSE
_NEOOVE=FALSE
_PRINEO=FALSE
_HUZINAGA_T=FALSE
_HUZINAGA_F=FALSE
_HUZINAGA=FALSE
_HUZINAGA_CORRECT=FALSE
!FASTLATGRAD=  1.000000000000000    
!FASTVLAMBDA= -1.000000000000000    
!IFORCE= -1.000000000000000    
!USESYM= -1.000000000000000    
_SINDEX=  0.000000000000000    
_AVDOM_OSV=  0.000000000000000    
_AVDOM_PNO=  0.000000000000000    
_AVDOM_PNOCC=  0.000000000000000    
_AVDOM_TNO=  0.000000000000000    
_AVDOM_TNOIT=  0.000000000000000    
_AVDOM_PAO=  0.000000000000000    
_AVDOM_LMO=  0.000000000000000    
_CC2OSV_FLAG=  0.000000000000000    
_EOMCCSD_CONV=FALSE
_TMADC2_FLAG=FALSE
_PROPADC2_FLAG=FALSE
_LEN_VirQ=  0.000000000000000    
_GRDCC2LR_FLAG=FALSE
_GRDADC2_FLAG=FALSE
_RO_VGLOBAL=  0.000000000000000    
_OPT=FALSE
_FREQ=FALSE
_HESS=FALSE
_CMRCC_callName=EMPTY
_CMRCC_callCount=  0.000000000000000    
_GECCO_CIROOT=  1.000000000000000    
_SYM_CATION=  1.000000000000000    
_MON_A=FALSE
_MON_B=FALSE
_MAXGEOM=  100.0000000000000    
!MAXGEOM=  100.0000000000000    
_NCORE=  0.000000000000000    
_NLARGECORE=  0.000000000000000    
R1= 0.9405158665307630    
R2= 0.9449655100995378    
PHI=  105.3591532312929    
D1=  2.034071682526726    
R3= 0.9417150979365382    
R4= 0.9416068820501429    
THETA=  177.4213035609140    
PHI1=  119.9787172350777    
PHI2=  113.3455155214836    
OMEGA=  179.9999999999947    
THETA1= -60.07721982153621    
THETA2= -114.4919410184885    
GX1=  1.218960662224698    
GY1=-0.9675095410010658    
GZ1= -3.476413223538488    
GX2=-0.9479202516691554E-01
GY2= 0.7306033253386596E-01
GZ2= -2.884699299558750    
GX3= 0.7227427020853217E-02
GY3=-0.3128860318214244E-02
GZ3= -1.103518616494677    
GX4= 0.9132340525143867E-01
GY4=-0.5993407060447326E-01
GZ4=  2.738979875786012    
GX5= 0.1753790384881593    
GY5=  1.578707241831641    
GZ5=  3.427969838890490    
GX6= -1.346517626706980    
GY6=-0.8163920892877589    
GZ6=  3.464634408055396    
H1X1=  1.218960662224698    
H1Y1=-0.9675095410010658    
H1Z1= -3.476413223538488    
O1X2=-0.9479202516691554E-01
O1Y2= 0.7306033253386596E-01
O1Z2= -2.884699299558750    
H2X3= 0.7227427020853217E-02
H2Y3=-0.3128860318214244E-02
H2Z3= -1.103518616494677    
O2X4= 0.9132340525143867E-01
O2Y4=-0.5993407060447326E-01
O2Z4=  2.738979875786012    
H3X5= 0.1753790384881593    
H3Y5=  1.578707241831641    
H3Z5=  3.427969838890490    
H4X6= -1.346517626706980    
H4Y6=-0.8163920892877589    
H4Z6=  3.464634408055396    
[Atoms] Angs
H     1    1         0.6450462034       -0.5119840004       -1.8396386536
O     2    8        -0.0501617795        0.0386618630       -1.5265171296
H     3    1         0.0038245897       -0.0016557216       -0.5839569037
O     4    8         0.0483262649       -0.0317157443        1.4494057314
H     5    1         0.0928065904        0.8354158951        1.8140035184
H     6    1        -0.7125464421       -0.4320160888        1.8334055729
[GTO]
   1 0
 s    3  1.00
  0.3386500000D+02  0.2549381454D-01
  0.5094790000D+01  0.1903731086D+00
  0.1158790000D+01  0.8521614860D+00
 s    1  1.00
  0.3258400000D+00  0.1000000000D+01
 s    1  1.00
  0.1027410000D+00  0.1000000000D+01
 p    1  1.00
  0.7500000000D+00  0.1000000000D+01
  
   2 0
 s    6  1.00
  0.8588500000D+04  0.1895150083D-02
  0.1297230000D+04  0.1438590063D-01
  0.2992960000D+03  0.7073200310D-01
  0.8737710000D+02  0.2400010105D+00
  0.2567890000D+02  0.5947970261D+00
  0.3740040000D+01  0.2808020123D+00
 s    3  1.00
  0.4211750000D+02  0.1138890124D+00
  0.9628370000D+01  0.9208111006D+00
  0.2853320000D+01 -0.3274470358D-02
 s    1  1.00
  0.9056610000D+00  0.1000000000D+01
 s    1  1.00
  0.2556110000D+00  0.1000000000D+01
 p    3  1.00
  0.4211750000D+02  0.3651139738D-01
  0.9628370000D+01  0.2371529830D+00
  0.2853320000D+01  0.8197019412D+00
 p    1  1.00
  0.9056610000D+00  0.1000000000D+01
 p    1  1.00
  0.2556110000D+00  0.1000000000D+01
 d    1  1.00
  0.1292000000D+01  0.1000000000D+01
  
   3 0
 s    3  1.00
  0.3386500000D+02  0.2549381454D-01
  0.5094790000D+01  0.1903731086D+00
  0.1158790000D+01  0.8521614860D+00
 s    1  1.00
  0.3258400000D+00  0.1000000000D+01
 s    1  1.00
  0.1027410000D+00  0.1000000000D+01
 p    1  1.00
  0.7500000000D+00  0.1000000000D+01
  
   4 0
 s    6  1.00
  0.8588500000D+04  0.1895150083D-02
  0.1297230000D+04  0.1438590063D-01
  0.2992960000D+03  0.7073200310D-01
  0.8737710000D+02  0.2400010105D+00
  0.2567890000D+02  0.5947970261D+00
  0.3740040000D+01  0.2808020123D+00
 s    3  1.00
  0.4211750000D+02  0.1138890124D+00
  0.9628370000D+01  0.9208111006D+00
  0.2853320000D+01 -0.3274470358D-02
 s    1  1.00
  0.9056610000D+00  0.1000000000D+01
 s    1  1.00
  0.2556110000D+00  0.1000000000D+01
 p    3  1.00
  0.4211750000D+02  0.3651139738D-01
  0.9628370000D+01  0.2371529830D+00
  0.2853320000D+01  0.8197019412D+00
 p    1  1.00
  0.9056610000D+00  0.1000000000D+01
 p    1  1.00
  0.2556110000D+00  0.1000000000D+01
 d    1  1.00
  0.1292000000D+01  0.1000000000D+01
  
   5 0
 s    3  1.00
  0.3386500000D+02  0.2549381454D-01
  0.5094790000D+01  0.1903731086D+00
  0.1158790000D+01  0.8521614860D+00
 s    1  1.00
  0.3258400000D+00  0.1000000000D+01
 s    1  1.00
  0.1027410000D+00  0.1000000000D+01
 p    1  1.00
  0.7500000000D+00  0.1000000000D+01
  
   6 0
 s    3  1.00
  0.3386500000D+02  0.2549381454D-01
  0.5094790000D+01  0.1903731086D+00
  0.1158790000D+01  0.8521614860D+00
 s    1  1.00
  0.3258400000D+00  0.1000000000D+01
 s    1  1.00
  0.1027410000D+00  0.1000000000D+01
 p    1  1.00
  0.7500000000D+00  0.1000000000D+01


[MO]
 Sym=      1.1
 Ene=     -20.5725
 Spin= Alpha
 Occup=    2.000000
1 0.000002549438740
2 0.000056971459879
3 -0.000079380263474
4 -0.000013774338960
5 0.000010899029488
6 0.000015125200294
7 -0.000020466675438
8 -0.000024798552407
9 0.000063353487991
10 -0.000238840827868
11 0.000004450141545
12 -0.000003488592247
13 -0.000010250886331
14 -0.000018101181066
15 0.000014265523720
16 0.000037739411803
17 -0.000005212317295
18 0.000003975373145
19 -0.000136788362251
20 -0.000001092743404
21 0.000002133159340
22 -0.000001040415936
23 0.000007921340443
24 0.000002070310628
25 -0.000001691625512
26 -0.000031275813822
27 0.000161792133955
28 0.000198392876461
29 0.000001729659467
30 -0.000001107538717
31 0.000029958668209
32 0.55142899422255
33 0.47167071321245
34 0.005608378733508
35 -0.000552626255285
36 -0.001108499442109
37 0.000720133032300
38 0.001074556056440
39 0.000386748209742
40 -0.000251693021925
41 -0.000419227085615
42 -0.000045683002113
43 0.000027618253700
44 0.000155259194237
45 0.000005264868825
46 -0.000056094744439
47 0.000050829875614
48 -0.000072649442125
49 0.000062955847175
50 -0.000037647994949
51 0.000194991695158
52 0.000136260676777
53 0.000052099566396
54 -0.000033775726069
55 -0.000064379209337
56 -0.000027484486262
57 0.000195591306049
58 0.000130814174008
59 0.000055235384717
60 0.000042545069236
61 0.000057431843861
62 -0.000028880050487
 Sym=      2.1
 Ene=     -20.5088
 Spin= Alpha
 Occup=    2.000000
1 0.000207127301366
2 0.000113351911456
3 0.000041952223714
4 -0.000043160289471
5 0.000034287684052
6 0.000057302984336
7 0.55142502300320
8 0.47167110139217
9 0.005620049035839
10 -0.000572931048298
11 0.001151089974886
12 -0.000908882699145
13 0.000882741841964
14 -0.000404825037703
15 0.000319783971168
16 -0.000275215941629
17 0.000060800816513
18 -0.000048378119193
19 -0.000027415128540
20 0.000009785915723
21 0.000046745068430
22 -0.000056530984153
23 0.000090858259709
24 0.000037771913511
25 -0.000030303957832
26 0.000196484256551
27 0.000115403809185
28 0.000236003305600
29 0.000021357170954
30 -0.000017147697426
31 -0.000059330965656
32 0.000021044358162
33 0.000016088483102
34 0.000018033107622
35 -0.000063541986805
36 -0.000002362852052
37 0.000001612820170
38 0.000010320525657
39 0.000009383667214
40 -0.000006105705867
41 -0.000030793463288
42 -0.000003973376160
43 0.000004132581509
44 0.000085640290111
45 0.000001268006797
46 -0.000000456936234
47 -0.000000811070563
48 -0.000002508542547
49 -0.000000487209025
50 0.000000530279072
51 -0.000003341587894
52 0.000022288712399
53 -0.000034903479574
54 0.000000097350960
55 -0.000001420605758
56 -0.000010953573497
57 -0.000003893450982
58 0.000024754010002
59 -0.000035810131255
60 0.000001633129684
61 0.000000401285908
62 -0.000011557026253
 Sym=      3.1
 Ene=      -1.3787
 Spin= Alpha
 Occup=    2.000000
1 0.005287508304080
2 0.003070717663104
3 0.001642639740371
4 -0.000930508161710
5 0.000737307731950
6 0.000448441530682
7 -0.006618416048724
8 -0.011001562567527
9 0.030527520122073
10 0.022993184615272
11 0.001290673898024
12 -0.001017946059144
13 0.002446299896571
14 0.002395974054949
15 -0.001886596811042
16 0.003032354323924
17 0.000745630076567
18 -0.000595116137678
19 0.003309325546643
20 -0.000145417956133
21 -0.000319834293384
22 0.000465252249517
23 -0.000428218039866
24 -0.000026789805972
25 0.000024637365461
26 0.008655398099780
27 0.006556706724015
28 -0.001481459262086
29 -0.000004377776882
30 -0.000010005206130
31 -0.001714440597665
32 -0.11338932681439
33 -0.18942005327943
34 0.53787808666444
35 0.37617138072045
36 -0.023751432846860
37 0.015441662940883
38 0.023479361810470
39 -0.039691714438894
40 0.025812019306442
41 0.039227824168169
42 -0.013516208029870
43 0.008754713529359
44 0.008614087882320
45 -0.000118571064880
46 0.003378447952022
47 -0.003259876887142
48 0.004106582945780
49 -0.005312813004608
50 0.003209320053133
51 0.095587164211704
52 0.078300845394871
53 -0.002845233659644
54 -0.003578950382284
55 -0.025874838249825
56 -0.008711028011962
57 0.095628618453003
58 0.078391122118268
59 -0.002834562307859
60 0.021792809678812
61 0.014022475166183
62 -0.009329645851887
 Sym=      4.1
 Ene=      -1.3180
 Spin= Alpha
 Occup=    2.000000
1 0.097025203274344
2 0.081044124294907
3 0.000540622566255
4 -0.019464438831444
5 0.015413178653659
6 0.011570997157707
7 -0.11316236513136
8 -0.18896990067706
9 0.53522171165438
10 0.37952959301274
11 0.024813325179314
12 -0.019585271651176
13 0.020309546688197
14 0.041569064245586
15 -0.032807235098837
16 0.033385623174147
17 0.012937810092307
18 -0.010252178246060
19 0.013601987824655
20 -0.000937194164083
21 -0.003696083978861
22 0.004633278142944
23 -0.006763297084552
24 -0.001244392683557
25 0.001019345550793
26 0.094057354905195
27 0.075064757002524
28 -0.008524235014852
29 0.000462993412350
30 -0.000448971200457
31 -0.027900902834801
32 0.007453046489952
33 0.012488542312500
34 -0.035949652439902
35 -0.022906785815375
36 0.001796580683854
37 -0.001169664055011
38 -0.003972027204208
39 0.002751250638721
40 -0.001786681915156
41 -0.004739017595440
42 0.000959595268919
43 -0.000646528517180
44 -0.005911750577039
45 -0.000002085584380
46 -0.000218873684951
47 0.000220959269331
48 -0.000254665765894
49 0.000452754580072
50 -0.000276278966536
51 -0.006848931391067
52 -0.007061958554748
53 0.002160341490966
54 0.000305865172704
55 0.001967412894144
56 0.000774622303027
57 -0.006872697542301
58 -0.007095469750134
59 0.002143122563623
60 -0.001642040701629
61 -0.001096022319675
62 0.000837804197531
 Sym=      5.1
 Ene=      -0.7462
 Spin= Alpha
 Occup=    2.000000
1 -0.000842670481395
2 -0.000893416111040
3 -0.000485374950346
4 0.000144312869883
5 -0.000057780505483
6 -0.000016587329723
7 0.000040061873579
8 0.000068005908846
9 -0.000194645079007
10 -0.000294399093600
11 0.000506266712970
12 0.001728416132006
13 0.000989369049780
14 0.000496080118394
15 0.002246858428283
16 0.001520095594130
17 0.001365189164047
18 0.002984919674594
19 0.000897361676320
20 -0.000001619438225
21 -0.000123887472208
22 0.000125506910433
23 0.000100019669079
24 0.000112881698245
25 0.000040901153487
26 0.000849342303697
27 0.001184215294568
28 0.000428137396501
29 0.000558594122079
30 0.000961122786901
31 -0.000136849839799
32 -0.000025296699374
33 -0.000043157208198
34 0.000123086179039
35 0.000397521447216
36 0.12282179626989
37 0.19318897245170
38 -0.003208682420156
39 0.18869130445114
40 0.29679952300615
41 -0.004940291380687
42 0.11717317754595
43 0.18447827767005
44 -0.003080430525941
45 -0.017273504096975
46 0.017684146964756
47 -0.000410642867781
48 -0.009205185780457
49 0.010182862804231
50 0.015460844389148
51 0.15054243433573
52 0.20542241078057
53 0.049111237911450
54 0.005791824299831
55 -0.026165977400368
56 -0.016651533601572
57 -0.15073144215992
58 -0.20585753520584
59 -0.049282671291347
60 -0.025965682398008
61 -0.005521955786697
62 0.017123957592988
 Sym=      6.1
 Ene=      -0.6914
 Spin= Alpha
 Occup=    2.000000
1 -0.14554581174826
2 -0.20423063965439
3 -0.057732761587703
4 0.023874002495719
5 -0.018858909400886
6 -0.000537932988982
7 0.000558704729481
8 0.000939299155651
9 -0.002549474182698
10 -0.000975936981233
11 -0.091123379192465
12 0.072527962184436
13 0.18735859052135
14 -0.13994922752640
15 0.11139484147513
16 0.28687377174739
17 -0.084235343831888
18 0.067049284569156
19 0.17970456853827
20 -0.013500297387399
21 -0.008481039117235
22 0.021981336504634
23 0.012343152295642
24 0.009132526630767
25 -0.007162738830675
26 0.14730635313932
27 0.19656142283085
28 0.061960885624302
29 -0.008322253684150
30 0.006465670745555
31 -0.030305356238158
32 -0.003769432477909
33 -0.006444336654362
34 0.019750707973126
35 0.042287247280511
36 0.012136792493895
37 -0.010188109219474
38 -0.052870509829377
39 0.018179019483063
40 -0.015357079923010
41 -0.081326288895937
42 0.010052313378276
43 -0.008995018946200
44 -0.067174102704659
45 0.000226738782087
46 -0.000196623534687
47 -0.000030115247400
48 -0.000093643135481
49 0.002836187698829
50 -0.001976495726412
51 -0.019149999317417
52 -0.029992242181912
53 -0.004965552755662
54 0.002387016726391
55 0.005831785655905
56 -0.003058153633976
57 -0.017252998362146
58 -0.027246260906869
59 -0.004485741718172
60 -0.003975246873216
61 -0.004645181201589
62 -0.003057927092679
 Sym=      7.1
 Ene=      -0.6052
 Spin= Alpha
 Occup=    2.000000
1 -0.047531850850579
2 -0.068824731153703
3 -0.013683117401908
4 0.006237339172329
5 -0.004953222396963
6 -0.004997332833838
7 -0.010731799350548
8 -0.018090058943026
9 0.051601624949032
10 0.10060810226800
11 -0.052328873605085
12 0.041034944732794
13 0.017435568283184
14 -0.076921343598819
15 0.060391374586558
16 0.028504725443226
17 -0.065823127870319
18 0.051340935324912
19 0.017223301040217
20 -0.003318912152070
21 -0.001182429024670
22 0.004501341176740
23 0.005145549903833
24 0.000373633801672
25 -0.000308443911674
26 0.009456307450981
27 0.007892828882212
28 -0.037080305653367
29 -0.005913531009933
30 0.004513359127509
31 -0.004404051382440
32 0.035233895474994
33 0.059898288544295
34 -0.18088510836126
35 -0.30693422983670
36 -0.15322879292468
37 0.099783166348455
38 0.16285584747522
39 -0.22732035145117
40 0.14806722938837
41 0.24467546478108
42 -0.20579077289384
43 0.13442230428298
44 0.21665577988249
45 0.002059575308697
46 -0.000730956722855
47 -0.001328618585842
48 -0.003918908257218
49 -0.013148516487389
50 0.008394856174639
51 0.084276058536086
52 0.12864818865881
53 0.032357785153241
54 -0.019846571723406
55 -0.019651146433362
56 0.005974414817572
57 0.084335255681702
58 0.12967858599479
59 0.031283854593280
60 0.009525336972896
61 0.026426961117848
62 0.005228240578396
 Sym=      8.1
 Ene=      -0.5474
 Spin= Alpha
 Occup=    2.000000
1 0.080608720487187
2 0.13565412656439
3 0.027341278016623
4 -0.006474477204499
5 0.005115230819462
6 0.024243343877568
7 0.032632364409860
8 0.055513427148357
9 -0.16822475173109
10 -0.27802908166533
11 0.14530320685010
12 -0.11535541126325
13 0.11079405985828
14 0.21567169346153
15 -0.17112899051037
16 0.16225091015282
17 0.19248822151575
18 -0.15315840282248
19 0.15923200612030
20 0.001915309588675
21 -0.002827537419296
22 0.000912227830621
23 -0.011640371932434
24 0.006736458096317
25 -0.005325382177314
26 0.068945896963672
27 0.10288231992467
28 0.013348152342486
29 0.014381143367244
30 -0.011648744825759
31 -0.015230011137375
32 0.009377946410958
33 0.016015949213097
34 -0.049862450913109
35 -0.073650872990384
36 -0.11187040640363
37 0.070083409654947
38 -0.070867824445445
39 -0.16815079660455
40 0.10530674210835
41 -0.10650929603337
42 -0.16745236868191
43 0.10414482716742
44 -0.12309810617239
45 0.004787829950549
46 0.001090966987528
47 -0.005878796938077
48 -0.004535552094492
49 -0.001606998120915
50 0.000920479946734
51 0.016493772930744
52 0.030205019879664
53 0.005119914176634
54 -0.013022434413751
55 0.000927061270353
56 -0.009051276409994
57 0.016570275095718
58 0.028739809010285
59 0.007193775886342
60 -0.006637430736658
61 0.011218072182811
62 -0.009117616110688
 Sym=      9.1
 Ene=      -0.5244
 Spin= Alpha
 Occup=    2.000000
1 0.025888701932124
2 0.042447605137560
3 0.019222251264363
4 0.000144659996680
5 0.000030252393653
6 0.016040299466122
7 0.014878825657091
8 0.025359166321271
9 -0.078271997231720
10 -0.12829631394263
11 0.071886620948243
12 -0.055183865606812
13 0.10024292398871
14 0.10604409492760
15 -0.081505686594072
16 0.14986277676442
17 0.10156096483345
18 -0.077488631821787
19 0.13384869665072
20 -0.000798369132816
21 -0.002968879962157
22 0.003767249094973
23 -0.005002337445682
24 0.005468319585236
25 -0.004253278121933
26 0.054139225836890
27 0.094573506165059
28 -0.033907813588493
29 0.008916045518533
30 -0.006755576585569
31 -0.015717098035637
32 0.003140024588753
33 0.005310203010932
34 -0.014208930918077
35 -0.039448110985019
36 0.13035273753249
37 -0.079729541821032
38 0.20213476077855
39 0.19574001733176
40 -0.11972751434855
41 0.30433866069903
42 0.21457840717127
43 -0.13177556729061
44 0.31346485288195
45 -0.008488302053871
46 -0.003467772563166
47 0.011956074617038
48 0.006103914160825
49 -0.002946811714446
50 0.002077626035838
51 0.006856357370360
52 0.015396925861595
53 0.009628403542090
54 0.012800642715776
55 -0.012240955604392
56 0.020114921049311
57 0.006886370963391
58 0.014939726408471
59 0.009889933667135
60 0.016751250157070
61 -0.005952282822900
62 0.020093006977021
 Sym=     10.1
 Ene=      -0.4712
 Spin= Alpha
 Occup=    2.000000
1 0.000028456754313
2 0.000203797930797
3 -0.000115764249991
4 0.019422590178224
5 0.024617282604390
6 -0.000061985602579
7 -0.000015514797100
8 -0.000027592898211
9 0.000128053591282
10 -0.000155808630248
11 0.18009611217696
12 0.22775848603519
13 -0.000712990741093
14 0.26903746887618
15 0.34024569655542
16 -0.001074594496122
17 0.29180989382544
18 0.36926560067987
19 -0.001188777814530
20 0.011822848322708
21 -0.011784080005033
22 -0.000038768317675
23 0.003240749560301
24 0.005522071622597
25 0.007044628612338
26 -0.000043064941917
27 -0.000004806938679
28 0.000073375896799
29 0.018355449606388
30 0.023227084160209
31 -0.000080700201894
32 0.000056905274076
33 0.000098841608438
34 -0.000226535092932
35 -0.001867776726604
36 -0.002619221832036
37 -0.001805826528416
38 -0.000758458188407
39 -0.003956386942046
40 -0.002530570504144
41 -0.001251123041735
42 0.003351404235069
43 0.006594446680316
44 -0.001933600104222
45 -0.000216047299190
46 0.000252146576317
47 -0.000036099277127
48 -0.000205861179642
49 -0.000020963228794
50 -0.000055923029597
51 -0.000870089572110
52 -0.015459345533080
53 0.016937414149917
54 -0.001068620147785
55 0.001314079223429
56 0.000752931198585
57 0.001057974260283
58 0.018659026078261
59 -0.017695753432523
60 0.001740406131368
61 0.000208622676145
62 -0.001140187828644
 Sym=     11.1
 Ene=       0.1337
 Spin= Alpha
 Occup=    0.000000
1 0.013428844490137
2 -0.045547694940085
3 0.33976185105295
4 0.001596413035590
5 -0.001266749123023
6 -0.007443564744101
7 0.011855125423154
8 0.019931637639397
9 -0.053038144919566
10 -0.17195402013259
11 -0.014883523688269
12 0.012016299854332
13 -0.020877583528478
14 -0.018256799227325
15 0.014881277255011
16 -0.038433089046708
17 -0.043238983753763
18 0.034501490697200
19 0.007645866597175
20 -0.000813332049780
21 -0.000574132532559
22 0.001387464582339
23 0.000544756743348
24 -0.001274959013294
25 0.000980231095665
26 0.010636938315966
27 -0.060056023810626
28 0.065569593942458
29 -0.000865047737399
30 0.000757689357742
31 0.009593941795225
32 0.034031176613560
33 0.055950716340120
34 -0.11498143270682
35 -0.81667359417251
36 0.042068152099762
37 -0.026755152085284
38 -0.037514500726529
39 0.066411248101266
40 -0.042495668189381
41 -0.056654627733311
42 0.12098553996899
43 -0.076751464101919
44 -0.11945192291520
45 -0.000648877497709
46 -0.000827476577288
47 0.001476354074997