
 Working directory              : /tmp/lme/molpro.SuXlVeOdhL/
 Global scratch directory       : /tmp/lme/molpro.SuXlVeOdhL/
 Wavefunction directory         : /home/lme/wfu/
 Main file repository           : /tmp/lme/molpro.SuXlVeOdhL/

 id        : liedlgroup

 Nodes     nprocs
 sv1-c724     5
 GA implementation: MPI file
 GA implementation (serial work in mppx): MPI file

 Using customized tuning parameters: mindgm=1; mindgv=20; mindgc=4; mindgr=1; noblas=0; minvec=7
 default implementation of scratch files=sf  


 Variables initialized (1042), CPU time= 0.00 sec
 ***,water dimer
  memory, 600, m
  gthresh,optgrad=1.d-7,twoint=1.d-14,prefac=1.d-16
  orient,mass
  geometry={
  H1
  O1,H1,r1
  H2,O1,r2,H1,phi
  O2,H2,d1,O1,theta,H1,omega
  H3,O2,r3,H1,phi1,H2,theta1
  H4,O2,r4,H2,phi2,H1,theta2
  }
 
  r1=0.9656 ANG
  r2=0.9724 ANG
  phi=104.27 DEGREE
  d1=1.9601 ANG
  r3=0.9671 ANG
  r4=r3
  theta=phi
  phi1=110.44 DEGREE
  phi2=phi1
  omega=180.0 DEGREE
  theta1=57.40 DEGREE
  theta2=-theta1
 
  mass,iso
  basis=6-311g(d,p)
 
  {hf
  start,atden}
 
 
  optg
  {frequencies, symm=auto, print=0,analytical}
  put,molden, h2o_dimer.molden
 Commands initialized (847), CPU time= 0.01 sec, 718 directives.
 Default parameters read. Elapsed time= 0.07 sec

 Checking input...
 Passed
1


                                         ***  PROGRAM SYSTEM MOLPRO  ***
                                       Copyright, TTI GmbH Stuttgart, 2015
                                    Version 2024.1 linked Wed Jan 31 11:42:09 2024


 **********************************************************************************************************************************
 LABEL *   water dimer                                                                                                                                                   
  (6 PROC) 64 bit mpp version                                                            DATE: 01-May-24          TIME: 08:42:03  
 **********************************************************************************************************************************

 SHA1:             675817fde4514a4a933b69e420913a90cee4ef91
 **********************************************************************************************************************************

 Memory per process:       600 MW
 Total memory per node:   3000 MW

 GA preallocation disabled
 GA check disabled

 Variable memory set to 600.0 MW


 THRESHOLDS:

 ZERO    =  1.00D-12  ONEINT  =  1.00D-12  TWOINT  =  1.00D-14  PREFAC  =  1.00D-16  XXXXXX  =  1.00D-09  EORDER  =  1.00D-04
 ENERGY  =  0.00D+00  ETEST   =  0.00D+00  EDENS   =  0.00D+00  THRDEDEF=  1.00D-06  GRADIENT=  1.00D-05  STEP    =  1.00D-03
 ORBITAL =  1.00D-05  CIVEC   =  1.00D-05  COEFF   =  1.00D-04  PRINTCI =  5.00D-02  PUNCHCI =  9.90D+01  OPTGRAD =  1.00D-07
 OPTENERG=  1.00D-06  OPTSTEP =  3.00D-04  THRGRAD =  1.00D-10  COMPRESS=  1.00D-11  VARMIN  =  1.00D-07  VARMAX  =  1.00D-03
 THRDOUB =  0.00D+00  THRDIV  =  1.00D-05  THRRED  =  1.00D-07  THRPSP  =  1.00D+00  THRDC   =  1.00D-10  THRCS   =  1.00D-10
 THRNRM  =  1.00D-08  THREQ   =  0.00D+00  THRDE   =  1.00D+00  THRREF  =  1.00D-05  SPARFAC =  1.00D+00  THRDLP  =  1.00D-07
 THRDIA  =  1.00D-10  THRDLS  =  1.00D-07  THRGPS  =  0.00D+00  THRKEX  =  0.00D+00  THRDIS  =  2.00D-01  THRVAR  =  1.00D-10
 THRLOC  =  1.00D-06  THRGAP  =  1.00D-06  THRLOCT = -1.00D+00  THRGAPT = -1.00D+00  THRORB  =  1.00D-06  THRMLTP =  0.00D+00
 THRCPQCI=  1.00D-10  KEXTA   =  0.00D+00  THRCOARS=  0.00D+00  SYMTOL  =  1.00D-06  GRADTOL =  1.00D-06  THROVL  =  1.00D-08
 THRORTH =  1.00D-08  THRDLOVL= -1.00D+00  GRID    =  1.00D-06  GRIDMAX =  1.00D-03  DTMAX   =  0.00D+00  THROCCDE=  1.00D-01
 THROCCDE=  1.00D-01  THRPRINT=  2.50D-01

 ZCENTRE=MASS

 SETTING R1             =         0.96560000  ANG                             
 SETTING R2             =         0.97240000  ANG                             
 SETTING PHI            =       104.27000000  DEGREE                          
 SETTING D1             =         1.96010000  ANG                             
 SETTING R3             =         0.96710000  ANG                             
 SETTING R4             =         0.96710000  ANG                             
 SETTING THETA          =       104.27000000  DEGREE                          
 SETTING PHI1           =       110.44000000  DEGREE                          
 SETTING PHI2           =       110.44000000  DEGREE                          
 SETTING OMEGA          =       180.00000000  DEGREE                          
 SETTING THETA1         =        57.40000000  DEGREE                          
 SETTING THETA2         =       -57.40000000  DEGREE                          


 Using masses of most abundant isotopes

 **********************************************************************************************************************************
 SETTING BASIS          =    6-311G(D,P)


 Recomputing integrals since basis changed


 Using spherical harmonics

 Library entry H      S 6-311G               selected for orbital group  1
 Library entry H      P 6-311G**             selected for orbital group  1
 Library entry O      S 6-311G               selected for orbital group  2
 Library entry O      P 6-311G               selected for orbital group  2
 Library entry O      D 6-311G*              selected for orbital group  2


 PROGRAM * SEWARD (Integral evaluation for generally contracted gaussian basis sets)     Author: Roland Lindh, 1990

 Geometry written to block  1 of record 700

 Orientation using atomic masses  
 Molecule type: Asymmetric top
 Rotational constants:       8.9894751      9.0343455    225.3615488 GHz

 Point group  C1  



 ATOMIC COORDINATES

 NR  ATOM    CHARGE       X              Y              Z

   1  H1      1.00   -0.279011361    0.499643667   -3.965074289
   2  O1      8.00    0.026904535   -0.107828307   -2.271854077
   3  H2      1.00   -0.459485155    1.297037261   -1.191835490
   4  O2      8.00    0.161502571    0.063911934    2.245282300
   5  H3      1.00   -1.464150524    0.367137925    3.023266960
   6  H4      1.00   -0.787509683   -1.466834323    2.555356091

 Bond lengths in Bohr (Angstrom)

 1-2  1.824719546  2-3  1.837569684  4-5  1.827554135  4-6  1.827554135
     ( 0.965600000)     ( 0.972400000)     ( 0.967100000)     ( 0.967100000)

 Bond angles

  1-2-3  104.27000000   5-4-6   66.72369122

 NUCLEAR CHARGE:                   20
 NUMBER OF PRIMITIVE AOS:          96
 NUMBER OF SYMMETRY AOS:           94
 NUMBER OF CONTRACTIONS:           60   (   60A   )
 NUMBER OF INNER CORE ORBITALS:     0   (    0A   )
 NUMBER OF OUTER CORE ORBITALS:     2   (    2A   )
 NUMBER OF VALENCE ORBITALS:       12   (   12A   )


 NUCLEAR REPULSION ENERGY   39.68029193


 Eigenvalues of metric

         1 0.150E-01 0.196E-01 0.293E-01 0.373E-01 0.778E-01 0.828E-01 0.901E-01 0.908E-01


 Contracted 2-electron integrals neglected if value below      1.0D-14
 AO integral compression algorithm  1   Integral accuracy      1.0D-14

     11.534 MB (compressed) written to integral file ( 72.4%)

     Node minimum: 1.835 MB, node maximum: 3.408 MB


 NUMBER OF SORTED TWO-ELECTRON INTEGRALS:     335805.     BUFFER LENGTH:  32768
 NUMBER OF SEGMENTS:   1  SEGMENT LENGTH:     335805      RECORD LENGTH: 524288

 Memory used in sort:       0.89 MW

 SORT1 READ     2081117. AND WROTE      314624. INTEGRALS IN      1 RECORDS. CPU TIME:     0.04 SEC, REAL TIME:     0.05 SEC
 SORT2 READ     1544502. AND WROTE     1675365. INTEGRALS IN     35 RECORDS. CPU TIME:     0.02 SEC, REAL TIME:     0.02 SEC

 Node minimum:      334341.  Node maximum:      335805. integrals

 OPERATOR DM      FOR CENTER  0  COORDINATES:    0.000000    0.000000    0.000000


 **********************************************************************************************************************************
 DATASETS  * FILE   NREC   LENGTH (MB)   RECORD NAMES
              1      18       28.79       500      610      700      900      950      970     1000      129      960     1100   
                                          VAR    BASINP    GEOM    SYMINP    ZMAT    AOBASIS   BASIS     P2S    ABASIS      S 
                                         1400     1410     1200     1210     1080     1600     1650     1700   
                                           T        V       H0       H01     AOSYM     SMH    MOLCAS    OPER   

 PROGRAMS   *        TOTAL       INT
 CPU TIMES  *         0.47      0.34
 REAL TIME  *         1.32 SEC
 DISK USED  *        29.19 MB (local),      174.65 MB (total)
 GA USED    *         0.00 MB       (max)       0.00 MB       (current)
 **********************************************************************************************************************************


 Program * Restricted Hartree-Fock

 Orbital guess generated from atomic densities.

 Initial occupancy:  10

 NELEC=   20   SYM=1   MS2= 0   THRE=1.0D-08   THRD=1.0D-06   THRG=1.0D-06  HFMA2=F  DIIS_START=2   DIIS_MAX=10   DIIS_INCORE=F

 Level shifts:    0.00 (CLOSED)    0.00 (OPEN)    0.30 (GAP_MIN)

 ITER           ETOT              DE          GRAD        DDIFF     DIIS  NEXP   TIME(IT)  TIME(TOT)  DIAG
   1     -151.94629021    -151.94629021     0.00D+00     0.64D-01     0     0       0.00      0.03    start
   2     -152.01350543      -0.06721522     0.15D-01     0.13D-01     1     0       0.00      0.03    diag
   3     -152.03687884      -0.02337341     0.87D-02     0.43D-02     2     0       0.01      0.04    diag
   4     -152.03732409      -0.00044525     0.87D-03     0.59D-03     3     0       0.00      0.04    diag
   5     -152.03737928      -0.00005519     0.26D-03     0.27D-03     4     0       0.01      0.05    diag
   6     -152.03738290      -0.00000362     0.71D-04     0.65D-04     5     0       0.00      0.05    diag
   7     -152.03738349      -0.00000059     0.31D-04     0.27D-04     6     0       0.01      0.06    diag
   8     -152.03738352      -0.00000003     0.54D-05     0.84D-05     7     0       0.00      0.06    fixocc
   9     -152.03738353      -0.00000000     0.10D-05     0.14D-05     8     0       0.01      0.07    diag
  10     -152.03738353      -0.00000000     0.30D-06     0.45D-06     9     0       0.00      0.07    diag/orth
  11     -152.03738353      -0.00000000     0.62D-07     0.59D-07     0     0       0.01      0.08    diag

 Final occupancy:  10

 !RHF STATE 1.1 Energy               -152.037383526217
  RHF One-electron energy            -288.927630208155
  RHF Two-electron energy              97.209954756766
  RHF Kinetic energy                  152.176197095886
  RHF Nuclear energy                   39.680291925171
  RHF Virial quotient                  -0.999087810234

 !RHF STATE 1.1 Dipole moment          -1.13822381     0.30631394     0.22541995
 Dipole moment /Debye                  -2.89307635     0.77857239     0.57296037

 Orbital energies:

           1.1          2.1          3.1          4.1          5.1          6.1          7.1          8.1          9.1         10.1
    -20.562813   -20.519579    -1.380286    -1.309850    -0.694778    -0.643455    -0.619940    -0.544521    -0.504857    -0.473784

          11.1         12.1
      0.133171     0.185529


 HOMO     10.1    -0.473784 =     -12.8923eV
 LUMO     11.1     0.133171 =       3.6238eV
 LUMO-HOMO         0.606955 =      16.5161eV

 Orbitals saved in record  2100.2


 **********************************************************************************************************************************
 DATASETS  * FILE   NREC   LENGTH (MB)   RECORD NAMES
              1      18       28.79       500      610      700      900      950      970     1000      129      960     1100   
                                          VAR    BASINP    GEOM    SYMINP    ZMAT    AOBASIS   BASIS     P2S    ABASIS      S 
                                         1400     1410     1200     1210     1080     1600     1650     1700   
                                           T        V       H0       H01     AOSYM     SMH    MOLCAS    OPER   

              2       4        0.51       700     1000      520     2100   
                                         GEOM     BASIS   MCVARS     RHF  

 PROGRAMS   *        TOTAL    HF-SCF       INT
 CPU TIMES  *         0.56      0.08      0.34
 REAL TIME  *         1.40 SEC
 DISK USED  *        29.62 MB (local),      176.84 MB (total)
 GA USED    *         0.00 MB       (max)       0.00 MB       (current)
 **********************************************************************************************************************************


 PROGRAM * OPT (Geometry optimization)     Authors: F. Eckert and H.-J. Werner


 BFGS update of hessian

 *** Long output written to logfile /home/lme/Bachelor_Thesis_Lukas_Meinschad/Rechnungen/h2o_dimer/h2o_dimer.log ***


 Geometry optimization using default procedure for command HF-SCF

 Geometry written to block  1 of record 700

 Making model hessian for Z-matrix coordinates

 Entering Rational Function Geometry Optimization

 ITER.   ENERGY(OLD)    ENERGY(NEW)      DE          GRADMAX     GRADNORM    GRADRMS     STEPMAX     STEPLEN     STEPRMS   CPU-time
   1  -152.03738353  -152.05047122    -0.01308769  0.13935719  0.19868419  0.05735519  0.11329549  0.14223456  0.01185288      0.42
   2  -152.05047122  -152.06038407    -0.00991285  0.12612549  0.17695213  0.05108168  0.04465328  0.11399366  0.00949947      0.76
   3  -152.06038407  -152.06914586    -0.00876179  0.11338086  0.15998998  0.04618513  0.04799546  0.09536342  0.00794695      1.09
   4  -152.06914586  -152.07691838    -0.00777252  0.09805804  0.14026026  0.04048965  0.04467036  0.09134152  0.00761179      1.43
   5  -152.07691838  -152.08344167    -0.00652329  0.08240092  0.11921334  0.03441393  0.04557661  0.09080029  0.00756669      1.78
   6  -152.08344167  -152.08825607    -0.00481440  0.06707304  0.09897739  0.02857231  0.04712366  0.08681789  0.00723482      2.12
   7  -152.08825607  -152.09132623    -0.00307016  0.05428110  0.08236662  0.02377719  0.03490659  0.07388779  0.00615732      2.47
   8  -152.09132623  -152.09456769    -0.00324145  0.04359992  0.07397896  0.02135589  0.03545501  0.08264433  0.00688703      2.82
   9  -152.09456769  -152.09582571    -0.00125802  0.03569062  0.05444628  0.01571729  0.03490659  0.08187170  0.00682264      3.15
  10  -152.09582571  -152.09685750    -0.00103180  0.03234583  0.04791680  0.01383239  0.03490659  0.07350702  0.00612558      3.46
  11  -152.09685750  -152.09787021    -0.00101271  0.02817704  0.04176474  0.01205644  0.03490659  0.07894443  0.00657870      3.79
  12  -152.09787021  -152.09860915    -0.00073894  0.02472832  0.03689442  0.01065050  0.03490659  0.07805105  0.00650425      4.13
  13  -152.09860915  -152.09934444    -0.00073529  0.02042763  0.03259928  0.00941060  0.03490659  0.08535579  0.00711298      4.46
  14  -152.09934444  -152.09993985    -0.00059542  0.01655750  0.02755887  0.00795556  0.03490659  0.07755695  0.00646308      4.79
  15  -152.09993985  -152.10046853    -0.00052867  0.01289200  0.02327262  0.00671823  0.03490659  0.07880540  0.00656712      5.12
  16  -152.10046853  -152.10079077    -0.00032224  0.00745625  0.01202738  0.00347201  0.04136667  0.08469309  0.00705776      5.44
  17  -152.10079077  -152.10070007     0.00009071  0.00404252  0.00623408  0.00179962  0.04657211  0.09432103  0.00786009      5.77
  18  -152.10070007  -152.10086293    -0.00016287  0.00878943  0.01529045  0.00441397  0.03490659  0.07176987  0.00598082      6.11
  19  -152.10086293  -152.10109988    -0.00023695  0.00724513  0.01162450  0.00335570  0.03490659  0.06379500  0.00531625      6.43
  20  -152.10109988  -152.10095305     0.00014684  0.00451240  0.00601060  0.00173511  0.03490659  0.07704634  0.00642053      6.76
  21  -152.10095305  -152.10067309     0.00027995  0.00860899  0.01362537  0.00393331  0.03490659  0.06210944  0.00517579      7.09
  22  -152.10067309  -152.10017791     0.00049518  0.01159804  0.01935430  0.00558710  0.03490659  0.06546696  0.00545558      7.42
  23  -152.10017791  -152.10070152    -0.00052361  0.01632583  0.02665933  0.00769589  0.03490659  0.06553495  0.00546125      7.76
  24  -152.10070152  -152.10139370    -0.00069218  0.01300548  0.02095058  0.00604791  0.07501072  0.10483980  0.00873665      8.10
  25  -152.10139370  -152.10155829    -0.00016459  0.00583682  0.00954583  0.00275564  0.03490659  0.07828507  0.00652376      8.46
  26  -152.10155829  -152.10166392    -0.00010563  0.00422850  0.00704741  0.00203441  0.03490659  0.08239096  0.00686591      8.81
  27  -152.10166392  -152.10176112    -0.00009719  0.00255630  0.00547264  0.00157982  0.03490659  0.08101675  0.00675140      9.14
  28  -152.10176112  -152.09563749     0.00612362  0.00195354  0.00328830  0.00094925  0.03490659  0.07611769  0.00634314      9.48
  29  -152.09563749  -152.09566225    -0.00002476  0.01523724  0.02026847  0.00585100  0.06238861  0.09161170  0.00763431      9.80
  30  -152.09566225  -152.09477522     0.00088703  0.01687645  0.02394038  0.00691099  0.14771692  0.16703703  0.01391975     10.12
  31  -152.09477522  -152.09544584    -0.00067062  0.01855297  0.03128417  0.00903096  0.03490659  0.08192032  0.00682669     10.45
  32  -152.09544584  -152.09534473     0.00010111  0.01781916  0.02776999  0.00801650  0.20347724  0.22502060  0.01875172     10.78
  33  -152.09534473  -152.09664725    -0.00130252  0.03552090  0.04710521  0.01359810  0.04317200  0.09241202  0.00770100     11.11
  34  -152.09664725  -152.09746798    -0.00082073  0.02198878  0.02876911  0.00830493  0.03490659  0.07719194  0.00643266     11.45
  35  -152.09746798  -152.09804988    -0.00058190  0.01333255  0.01897950  0.00547891  0.03490659  0.06527109  0.00543926     11.79
  36  -152.09804988  -152.09863423    -0.00058435  0.01185802  0.01787181  0.00515915  0.04543071  0.08802707  0.00733559     12.11
  37  -152.09863423  -152.09908443    -0.00045020  0.01028312  0.01418216  0.00409404  0.04575705  0.08564875  0.00713740     12.44
  38  -152.09908443  -152.09955414    -0.00046971  0.00930246  0.01287378  0.00371634  0.03490659  0.07603970  0.00633664     12.77
  39  -152.09955414  -152.09990999    -0.00035585  0.00721721  0.00954192  0.00275452  0.03490659  0.07817670  0.00651472     13.09
  40  -152.09990999  -152.10020222    -0.00029223  0.00501668  0.00791652  0.00228530  0.03490659  0.07593641  0.00632803     13.43
  41  -152.10020222  -152.10059657    -0.00039435  0.00549729  0.00911275  0.00263062  0.08203182  0.11049156  0.00920763     13.77
  42  -152.10059657  -152.10084511    -0.00024854  0.00710975  0.01005814  0.00290354  0.08128246  0.11255775  0.00937981     14.11
  43  -152.10084511  -152.10103405    -0.00018894  0.00411639  0.00676684  0.00195342  0.05021415  0.08999955  0.00749996     14.45
  44  -152.10103405  -152.10131051    -0.00027646  0.00616292  0.00863903  0.00249387  0.03490659  0.07437951  0.00619829     14.80
  45  -152.10131051  -152.10149907    -0.00018856  0.00459019  0.00590534  0.00170473  0.03490659  0.07978804  0.00664900     15.12
  46  -152.10149907  -152.10165057    -0.00015150  0.00193309  0.00335172  0.00096756  0.03490659  0.07277257  0.00606438     15.46
  47  -152.10165057  -152.10168510    -0.00003453  0.00186336  0.00248699  0.00071793  0.03490659  0.06423485  0.00535290     15.77
  48  -152.10168510  -152.10171099    -0.00002589  0.00265892  0.00472248  0.00136326  0.03490659  0.07656114  0.00638010     16.10
  49  -152.10171099  -152.10175992    -0.00004893  0.00347374  0.00584905  0.00168847  0.03490659  0.07006182  0.00583848     16.44
  50  -152.10175992  -152.10162992     0.00012999  0.00340048  0.00533894  0.00154122  0.03490659  0.07115117  0.00592926     16.77
  51  -152.10162992  -152.10156040     0.00006953  0.00639847  0.01115762  0.00322093  0.03490659  0.06695704  0.00557975     17.10
  52  -152.10156040  -152.10171439    -0.00015399  0.00766882  0.01352667  0.00390481  0.03521961  0.08164535  0.00680378     17.44
  53  -152.10171439  -152.10180643    -0.00009204  0.00599011  0.01048402  0.00302647  0.03490659  0.07869533  0.00655794     17.78
  54  -152.10180643  -152.10177981     0.00002662  0.00465351  0.00807197  0.00233018  0.03490659  0.06586391  0.00548866     18.10
  55  -152.10177981  -152.10171745     0.00006236  0.00556434  0.01028128  0.00296795  0.03490659  0.07917492  0.00659791     18.43
  56  -152.10171745  -152.10181966    -0.00010221  0.00653974  0.01274829  0.00368012  0.03490659  0.07058982  0.00588249     18.74
  57  -152.10181966  -152.10178158     0.00003808  0.00520479  0.01051021  0.00303404  0.03490659  0.07544794  0.00628733     19.07
  58  -152.10178158  -152.10188120    -0.00009962  0.00601626  0.01201661  0.00346890  0.03490659  0.07506888  0.00625574     19.40
  59  -152.10188120  -152.10181462     0.00006658  0.00459527  0.00908277  0.00262197  0.03490659  0.05921816  0.00493485     19.76
  60  -152.10181462  -152.10191698    -0.00010235  0.00638156  0.01240615  0.00358135  0.03490659  0.07894252  0.00657854     20.09
  61  -152.10191698  -152.10188999     0.00002699  0.00542076  0.01006867  0.00290657  0.03490659  0.07116985  0.00593082     20.42
  62  -152.10188999  -152.10188240     0.00000759  0.00610814  0.01162560  0.00335602  0.03490659  0.06276702  0.00523058     20.73
  63  -152.10188240  -152.10188347    -0.00000107  0.00641415  0.01236258  0.00356877  0.03490659  0.05763894  0.00480325     21.05
  64  -152.10188347  -152.10203602    -0.00015255  0.00641262  0.01262148  0.00364351  0.03490659  0.07001564  0.00583464     21.38
  65  -152.10203602  -152.10217104    -0.00013502  0.00474581  0.00798772  0.00230586  0.03490659  0.07395364  0.00616280     21.71
  66  -152.10217104  -152.10221297    -0.00004193  0.00142716  0.00237535  0.00068570  0.03490659  0.06877766  0.00573147     22.04
  67  -152.10221297  -152.10222533    -0.00001235  0.00157045  0.00208241  0.00060114  0.03490659  0.05584094  0.00465341     22.38
  68  -152.10222533  -152.10223577    -0.00001044  0.00136809  0.00280144  0.00080870  0.03490659  0.05904972  0.00492081     22.72
  69  -152.10223577  -152.10227328    -0.00003751  0.00280541  0.00405682  0.00117110  0.03490659  0.05890195  0.00490850     23.04
  70  -152.10227328  -152.10229508    -0.00002180  0.00269062  0.00342833  0.00098967  0.03490659  0.06270946  0.00522579     23.36
  71  -152.10229508  -152.10231085    -0.00001577  0.00187649  0.00481174  0.00138903  0.03490659  0.06466942  0.00538912     23.68
  72  -152.10231085  -152.10233169    -0.00002083  0.00265818  0.00526804  0.00152075  0.03490659  0.05174970  0.00431248     24.06
  73  -152.10233169  -152.10235356    -0.00002188  0.00391530  0.00608981  0.00175798  0.03490659  0.05339532  0.00444961     24.40
  74  -152.10235356  -152.10236323    -0.00000966  0.00432945  0.00624703  0.00180336  0.03490659  0.05851202  0.00487600     24.74
  75  -152.10236323  -152.10240577    -0.00004254  0.00527703  0.00747008  0.00215643  0.03490659  0.07136738  0.00594728     25.07
  76  -152.10240577  -152.10244365    -0.00003788  0.00615054  0.00795892  0.00229754  0.03490659  0.06290954  0.00524246     25.39
  77  -152.10244365  -152.10250413    -0.00006049  0.00507754  0.00677425  0.00195556  0.03490659  0.08230955  0.00685913     25.79
  78  -152.10250413  -152.10250460    -0.00000046  0.00168093  0.00237602  0.00068590  0.03490659  0.05853424  0.00487785     26.13
  79  -152.10250460  -152.10253617    -0.00003157  0.00205847  0.00357522  0.00103208  0.03490659  0.06111386  0.00509282     26.45
  80  -152.10253617  -152.10254510    -0.00000893  0.00169053  0.00305831  0.00088286  0.03490659  0.05262353  0.00438529     26.79
  81  -152.10254510  -152.10258242    -0.00003732  0.00299310  0.00428877  0.00123806  0.03490659  0.06157979  0.00513165     27.12
  82  -152.10258242  -152.10261737    -0.00003496  0.00244033  0.00461593  0.00133251  0.03490659  0.06011181  0.00500932     27.44
  83  -152.10261737  -152.10263116    -0.00001379  0.00297137  0.00512413  0.00147921  0.03490659  0.05411956  0.00450996     27.78
  84  -152.10263116  -152.10264448    -0.00001332  0.00287897  0.00512242  0.00147872  0.03490659  0.06285323  0.00523777     28.11
  85  -152.10264448  -152.10263524     0.00000924  0.00320567  0.00563055  0.00162540  0.03490659  0.05989572  0.00499131     28.43
  86  -152.10263524  -152.10271203    -0.00007680  0.00362240  0.00702467  0.00202785  0.03490659  0.06064962  0.00505413     28.75
  87  -152.10271203  -152.10273546    -0.00002343  0.00282270  0.00408439  0.00117906  0.03490659  0.05251860  0.00437655     29.08
  88  -152.10273546  -152.10274724    -0.00001178  0.00185392  0.00268299  0.00077451  0.03490659  0.05179089  0.00431591     29.49
  89  -152.10274724  -152.10274012     0.00000713  0.00202091  0.00361599  0.00104385  0.03490659  0.06744113  0.00562009     29.83
  90  -152.10274012  -152.10278295    -0.00004284  0.00221563  0.00405648  0.00117100  0.03490659  0.06343955  0.00528663     30.17
  91  -152.10278295  -152.10281449    -0.00003154  0.00216628  0.00357161  0.00103103  0.03490659  0.06606273  0.00550523     30.59
  92  -152.10281449  -152.10281681    -0.00000232  0.00224412  0.00350948  0.00101310  0.03490659  0.05829738  0.00485812     30.96
  93  -152.10281681  -152.10283770    -0.00002089  0.00224433  0.00469050  0.00135403  0.03490659  0.05730286  0.00477524     31.30
  94  -152.10283770  -152.10285866    -0.00002096  0.00248217  0.00429491  0.00123983  0.03490659  0.05334964  0.00444580     31.63
  95  -152.10285866  -152.10286755    -0.00000889  0.00144740  0.00276569  0.00079839  0.03490659  0.05508470  0.00459039     31.98
  96  -152.10286755  -152.10288197    -0.00001442  0.00096665  0.00199845  0.00057690  0.03490659  0.07469303  0.00622442     32.42
  97  -152.10288197  -152.10289011    -0.00000814  0.00172011  0.00256930  0.00074169  0.03490659  0.06481922  0.00540160     32.80
  98  -152.10289011  -152.10288117     0.00000894  0.00104673  0.00220838  0.00063751  0.03490659  0.05013149  0.00417762     33.15
  99  -152.10288117  -152.10290219    -0.00002102  0.00218636  0.00401116  0.00115792  0.01955021  0.02349199  0.00195767     33.47
 100  -152.10290219  -152.10290628    -0.00000409  0.00071775  0.00161015  0.00046481  0.03490659  0.04884888  0.00407074     33.80
 ? Warning
 ? No convergence in max. number of iterations

 END OF GEOMETRY OPTIMIZATION.

 Optimized variables
 R1=                  0.94051587 ANG
 R2=                  0.94496551 ANG
 PHI=               105.35915323 DEGREE
 D1=                  2.03407168 ANG
 THETA=             177.42130356 DEGREE
 OMEGA=             180.00000000 DEGREE
 R3=                  0.94171510 ANG
 PHI1=              119.97871724 DEGREE
 THETA1=            -60.07721982 DEGREE
 R4=                  0.94160688 ANG
 PHI2=              113.34551552 DEGREE
 THETA2=           -114.49194102 DEGREE

 **********************************************************************************************************************************

 Geometry written to block  1 of record 700

 Recomputing wavefunction for reoriented structure

 Current geometry (xyz format, in Angstrom)

    6
 HF-SCF000/6-311G(D,P)  ENERGY=-152.10290628
 H          0.6450462034       -0.5119840004       -1.8396386536
 O         -0.0501617795        0.0386618630       -1.5265171296
 H          0.0038245897       -0.0016557216       -0.5839569037
 O          0.0483262649       -0.0317157443        1.4494057314
 H          0.0928065904        0.8354158951        1.8140035184
 H         -0.7125464421       -0.4320160888        1.8334055729

 **********************************************************************************************************************************


 **********************************************************************************************************************************
 DATASETS  * FILE   NREC   LENGTH (MB)   RECORD NAMES
              1      19       28.80       500      610      700      900      700(1)   950      970     1000      129      960   
                                          VAR    BASINP    GEOM    SYMINP    GEOM     ZMAT    AOBASIS   BASIS     P2S    ABASIS    
                                         1100     1400     1410     1200     1210     1080     1600     1650     1700   
                                           S        T        V       H0       H01     AOSYM     SMH    MOLCAS    OPER   

              2       5        0.55       700     1000      520     2100      700(1)
                                         GEOM     BASIS   MCVARS     RHF     GEOM   

 PROGRAMS   *        TOTAL      OPTG    HF-SCF       INT
 CPU TIMES  *        34.38     33.82      0.08      0.34
 REAL TIME  *        39.99 SEC
 DISK USED  *        29.65 MB (local),      176.99 MB (total)
 SF USED    *         0.01 MB
 GA USED    *         0.00 MB       (max)       0.00 MB       (current)
 **********************************************************************************************************************************


 PROGRAM * HESSIAN

 PROGRAM * MCKINLEY (Hessian of the energy)     Author: A. Bernhardsson, R. Lindh

 Orbitals from record         2100.2

 Number of closed-shell orbitals: 10 ( 10 )
 Number of occupied orbitals:     10 ( 10 )

 Number of electrons= 20     Singlet     Space symmetry=1      Wavefunction type: CLOSED          


 McKinley needed      0.62 seconds of CPU time

 Entering CPHF calculation

 CPHF needed 145 iterations for 18 perturbations.  Total CPU time:    0.45 sec


 HF-SCF hessian saved to record  5300.2

 PROGRAM * FREQUENCIES (Calculation of harmonic vibrational spectra for HF-SCF)


 Permanent Dipole Moment [debye]
     1-   3    0.000000    0.000000    0.000000

 Dipole Moment Norm    0.0000000 [debye]

 Dipole Moment Derivatives [debye/ang]
              1             2             3             4             5             6             7             8
    1    0.00000000    0.00000000    0.00000000    0.00000000    0.00000000    0.00000000    0.00000000    0.00000000
    2    0.00000000    0.00000000    0.00000000    0.00000000    0.00000000    0.00000000    0.00000000    0.00000000
    3    0.00000000    0.00000000    0.00000000    0.00000000    0.00000000    0.00000000    0.00000000    0.00000000
              9            10            11            12            13            14            15            16
    1    0.00000000    0.00000000    0.00000000    0.00000000    0.00000000    0.00000000    0.00000000    0.00000000
    2    0.00000000    0.00000000    0.00000000    0.00000000    0.00000000    0.00000000    0.00000000    0.00000000
    3    0.00000000    0.00000000    0.00000000    0.00000000    0.00000000    0.00000000    0.00000000    0.00000000
             17            18
    1    0.00000000    0.00000000
    2    0.00000000    0.00000000
    3    0.00000000    0.00000000

 Projecting out rotations and translations

 Force Constants (Second Derivatives of the Energy) in [a.u.]
                             H1X1        H1Y1        H1Z1        O1X2        O1Y2    
           H1X1          0.3424021
           H1Y1         -0.2708177   0.2149639
           H1Z1         -0.1527977   0.1211297   0.1273518
           O1X2         -0.3434712   0.2712243   0.1091585   0.3818606
           O1Y2          0.2713569  -0.2157041  -0.0866104  -0.2988392   0.2407620
           O1Z2          0.1584033  -0.1255770  -0.1110845  -0.0944690   0.0765476
           H2X3          0.0013422  -0.0003532   0.0443409  -0.0411224   0.0273106
           H2Y3         -0.0004860   0.0010324  -0.0351003   0.0274311  -0.0280280
           H2Z3         -0.0051986   0.0040656  -0.0156156  -0.0150423   0.0104077
           O2X4         -0.0004909  -0.0002680  -0.0007982   0.0039753   0.0004926
           O2Y4         -0.0003428  -0.0006815   0.0006824   0.0005692   0.0043877
           O2Z4         -0.0005662   0.0004324  -0.0008969   0.0019361  -0.0013453
           H3X5          0.0001870   0.0001675   0.0000012  -0.0006891  -0.0001890
           H3Y5          0.0001232   0.0001163  -0.0001091  -0.0001603  -0.0006762
           H3Z5         -0.0000164  -0.0001492   0.0001801   0.0001764   0.0020004
           H4X6          0.0000307   0.0000470   0.0000954  -0.0005533  -0.0001319
           H4Y6          0.0001665   0.0002730   0.0000077  -0.0002252  -0.0007414
           H4Z6          0.0001755   0.0000984   0.0000653  -0.0017595  -0.0010000
                             O1Z2        H2X3        H2Y3        H2Z3        O2X4    
           O1Z2          0.7092261
           H2X3         -0.0639504   0.0439179
           H2Y3          0.0490323  -0.0261767   0.0319204
           H2Z3         -0.5914714   0.0194574  -0.0137903   0.6097330
           O2X4          0.0000604  -0.0056362  -0.0009971   0.0012798   0.4462817
           O2Y4         -0.0000027  -0.0010184  -0.0064803  -0.0010071   0.2269388
           O2Z4         -0.0067843  -0.0031301   0.0020498  -0.0015452  -0.2258626
           H3X5          0.0005258   0.0007924   0.0000818  -0.0013483  -0.0381077
           H3Y5          0.0008596   0.0001272   0.0007659  -0.0015589  -0.0522593
           H3Z5          0.0000574  -0.0002146  -0.0040086  -0.0006248   0.0042437
           H4X6         -0.0005701   0.0007060   0.0001469   0.0008521  -0.4060223
           H4Y6         -0.0008599   0.0001105   0.0007896   0.0018829  -0.1739071
           H4Z6          0.0000568   0.0034968   0.0018170  -0.0004761   0.2210769
                             O2Y4        O2Z4        H3X5        H3Y5        H3Z5    
           O2Y4          0.6662463
           O2Z4          0.1346605   0.2476763
           H3X5         -0.0041943   0.0269550   0.0400246
           H3Y5         -0.5201233  -0.1989980   0.0478129   0.5403079
           H3Z5         -0.2333354  -0.1145863  -0.0078521   0.2123619   0.1066113
           H4X6         -0.2219524   0.2006678  -0.0022073   0.0043564   0.0036630
           H4Y6         -0.1433490   0.0632006  -0.0436788  -0.0203906   0.0231309
           H4Z6          0.0990022  -0.1238635  -0.0182815  -0.0125555   0.0083624
                             H4X6        H4Y6        H4Z6    
           H4X6          0.4080462
           H4Y6          0.2175341   0.1634183
           H4Z6         -0.2047082  -0.0873622   0.1158552


 Atomic Masses
     1-   6    1.007825   15.994910    1.007825   15.994910    1.007825    1.007825

 Mass weighted Second Derivative Matrix
                             H1X1        H1Y1        H1Z1        O1X2        O1Y2    
           H1X1          0.3397436
           H1Y1         -0.2687150   0.2132949
           H1Z1         -0.1516113   0.1201892   0.1263630
           O1X2         -0.0855474   0.0675531   0.0271878   0.0238739
           O1Y2          0.0675861  -0.0537248  -0.0215718  -0.0186834   0.0150524
           O1Z2          0.0394531  -0.0312771  -0.0276675  -0.0059062   0.0047857
           H2X3          0.0013318  -0.0003504   0.0439966  -0.0102422   0.0068022
           H2Y3         -0.0004823   0.0010244  -0.0348278   0.0068322  -0.0069809
           H2Z3         -0.0051582   0.0040340  -0.0154944  -0.0037466   0.0025922
           O2X4         -0.0001223  -0.0000667  -0.0001988   0.0002485   0.0000308
           O2Y4         -0.0000854  -0.0001697   0.0001700   0.0000356   0.0002743
           O2Z4         -0.0001410   0.0001077  -0.0002234   0.0001210  -0.0000841
           H3X5          0.0001856   0.0001662   0.0000012  -0.0001716  -0.0000471
           H3Y5          0.0001222   0.0001154  -0.0001083  -0.0000399  -0.0001684
           H3Z5         -0.0000162  -0.0001480   0.0001787   0.0000439   0.0004982
           H4X6          0.0000304   0.0000466   0.0000946  -0.0001378  -0.0000329
           H4Y6          0.0001652   0.0002709   0.0000076  -0.0000561  -0.0001846
           H4Z6          0.0001741   0.0000977   0.0000647  -0.0004382  -0.0002491
                             O1Z2        H2X3        H2Y3        H2Z3        O2X4    
           O1Z2          0.0443407
           H2X3         -0.0159280   0.0435769
           H2Y3          0.0122123  -0.0259735   0.0316726
           H2Z3         -0.1473161   0.0193063  -0.0136832   0.6049989
           O2X4          0.0000038  -0.0014038  -0.0002483   0.0003187   0.0279015
           O2Y4         -0.0000002  -0.0002537  -0.0016140  -0.0002508   0.0141882
           O2Z4         -0.0004242  -0.0007796   0.0005105  -0.0003849  -0.0141209
           H3X5          0.0001310   0.0007863   0.0000812  -0.0013379  -0.0094914
           H3Y5          0.0002141   0.0001262   0.0007599  -0.0015468  -0.0130161
           H3Z5          0.0000143  -0.0002130  -0.0039775  -0.0006199   0.0010570
           H4X6         -0.0001420   0.0007005   0.0001458   0.0008455  -0.1011268
           H4Y6         -0.0002142   0.0001096   0.0007835   0.0018683  -0.0433145
           H4Z6          0.0000141   0.0034697   0.0018029  -0.0004724   0.0550630
                             O2Y4        O2Z4        H3X5        H3Y5        H3Z5    
           O2Y4          0.0416536
           O2Z4          0.0084190   0.0154847
           H3X5         -0.0010447   0.0067136   0.0397138
           H3Y5         -0.1295457  -0.0495639   0.0474417   0.5361129
           H3Z5         -0.0581162  -0.0285397  -0.0077912   0.2107130   0.1057835
           H4X6         -0.0552811   0.0499798  -0.0021902   0.0043226   0.0036346
           H4Y6         -0.0357035   0.0157412  -0.0433397  -0.0202322   0.0229513
           H4Z6          0.0246582  -0.0308503  -0.0181395  -0.0124580   0.0082974
                             H4X6        H4Y6        H4Z6    
           H4X6          0.4048780
           H4Y6          0.2158451   0.1621495
           H4Z6         -0.2031188  -0.0866839   0.1149557


 Mass Weighted 2nd Derivative Matrix Eigenvalues
     1-  10    0.000000    0.000000    0.000000    0.000000    0.000000    0.000000    0.000268    0.000669    0.000874    0.001131
    11-  18    0.004728    0.013858    0.116217    0.119727    0.635889    0.648457    0.671778    0.677955

 Mass Weighted 2nd Derivative Matrix Eigenvectors
              1             2             3             4             5             6             7             8
    1    0.11107083    0.04851548   -0.06151353   -0.05561919   -0.28201715    0.29609358    0.06026829    0.49462725
    2   -0.11663867    0.04942026   -0.07691656    0.24457148   -0.23775383    0.34712004    0.09639306    0.59621987
    3    0.11158447   -0.12627957    0.03387197   -0.01761781    0.03980044    0.06951687   -0.02886463    0.04894198
    4    0.79540511    0.24878966   -0.31956106   -0.25486020   -0.20148120    0.07226057    0.07343516   -0.12369958
    5    0.05391615    0.20723301   -0.48668466    0.76072782    0.22467985    0.04424303    0.10295226   -0.16163611
    6    0.31613972   -0.39802507    0.28653065    0.23154170    0.14490270    0.17246603    0.00871609    0.00679459
    7    0.14186111    0.09416761   -0.00407983   -0.02830878   -0.03994184    0.02734639   -0.23448404   -0.08062748
    8   -0.00486159    0.04690796   -0.09093680    0.10644961    0.07444384    0.06915791   -0.34601130   -0.02462767
    9    0.08187980   -0.10194599    0.06889888    0.05246325    0.03653578    0.04524753    0.00076483    0.00518319
   10    0.11174896    0.64909632    0.62037992    0.18561496    0.02388230    0.07510928   -0.09125829   -0.03436146
   11   -0.12267524    0.14467571   -0.11624865   -0.31244736    0.56749544    0.63159260   -0.12251770   -0.04071049
   12    0.33458908   -0.41275262    0.26418379    0.19158467    0.14555155    0.18626199   -0.00920325   -0.03195471
   13    0.17438503    0.18052057    0.11632499    0.02877045    0.36678883   -0.41737400    0.04754357    0.42371543
   14   -0.04241867    0.03419680   -0.01525988   -0.11027217    0.13989587    0.19275216    0.20289548   -0.08172907
   15    0.09378322   -0.10071315    0.03801394    0.12599767   -0.00140469    0.01860608   -0.56530228    0.10801588
   16   -0.06885590    0.17354265    0.21668428    0.07487216   -0.14478436    0.21385781    0.19767610   -0.20803047
   17    0.11132026    0.03895025   -0.07751944   -0.14089786    0.46613292   -0.20784683    0.12466771    0.31624673
   18    0.04011879   -0.07984037    0.13670970    0.03900532    0.07519829    0.05120423    0.59534280   -0.06190799
              9            10            11            12            13            14            15            16
    1    0.09038956   -0.01452314    0.13939814    0.04385427   -0.02744015    0.16496491    0.29639746   -0.07914352
    2   -0.14360544    0.06644648   -0.12289810    0.04656399    0.02182875   -0.12902878   -0.23482476    0.06271346
    3    0.33953876   -0.28324811    0.52201281    0.01664249   -0.10002728    0.60071369   -0.16419408    0.04147723
    4    0.04607577   -0.02542351   -0.02694930   -0.08308655    0.02919349   -0.17446727   -0.08083001    0.02045337
    5   -0.00754105    0.00215521    0.03178154   -0.09961534   -0.02303427    0.13774593    0.06347296   -0.01614024
    6   -0.33107298   -0.59276358   -0.10667919   -0.00321636    0.02617810   -0.13619924   -0.17688238    0.02090989
    7   -0.33704411    0.10555080   -0.41913517    0.53989726   -0.08811830    0.55220250    0.02481560   -0.00150895
    8    0.24043870   -0.07818581    0.29699104    0.70484044    0.07001042   -0.43900747   -0.01729332    0.00099597
    9   -0.05256155   -0.15746876    0.00831217   -0.00178420    0.00664882   -0.05629182    0.87192613   -0.12676493
   10   -0.11666536    0.05367579    0.20427204   -0.09169767    0.16629880    0.01832035    0.02091166    0.12033184
   11    0.07474535   -0.03747152   -0.14593629   -0.12589679   -0.10863830   -0.01041126   -0.01419121   -0.08086844
   12    0.05190655    0.69494451    0.13321456   -0.00497119   -0.18100667   -0.03481835   -0.02233190   -0.12752714
   13    0.23946078   -0.08521089   -0.22286141    0.04579096   -0.55140633   -0.08341924    0.00813154    0.06037852
   14   -0.16437865    0.06234765    0.14132682    0.07598182   -0.12958495   -0.02665516    0.10650697    0.63862299
   15    0.41328761    0.01622915   -0.35162511   -0.26378454    0.36003272    0.07181379    0.04203473    0.24982702
   16    0.28840912   -0.11836839   -0.20382120    0.06676418   -0.11183883   -0.01168892   -0.09064143   -0.54058725
   17   -0.20018361    0.09008506    0.13935077    0.07101065    0.56230393    0.08741458   -0.05071788   -0.31586851
   18    0.41188049    0.01741856   -0.28441167    0.28154384    0.35015294    0.06506548    0.04386455    0.26020326
             17            18
    1    0.64118706    0.00017601
    2   -0.50786051    0.00025578
    3   -0.30441200    0.00002656
    4   -0.15234488   -0.00004224
    5    0.12093897   -0.00006989
    6    0.17812352    0.00004267
    7   -0.03390299   -0.00036969
    8    0.02575051   -0.00053080
    9   -0.40598602   -0.00024511
   10    0.00520514   -0.14689768
   11   -0.00346574   -0.22902453
   12   -0.00565000    0.00453281
   13    0.00370248    0.03183065
   14    0.02962526    0.62116858
   15    0.01140877    0.26224971
   16   -0.02481015    0.55374339
   17   -0.01550596    0.29177449
   18    0.01188796   -0.28025900

   Low Vibration      Wavenumber
        Nr             [1/cm] 
        1                0.00
        2                0.00
        3                0.00
        4                0.00
        5                0.00
        6                0.00

     Vibration        Wavenumber
        Nr             [1/cm] 
        1               84.12
        2              132.96
        3              152.00
        4              172.86
        5              353.45
        6              605.15
        7             1752.42
        8             1778.69
        9             4099.16
       10             4139.47
       11             4213.25
       12             4232.58

 FREQUENCIES * CALCULATION OF NORMAL MODES FOR HF-SCF


 Atomic Coordinates

  Nr  Atom  Charge       X              Y              Z

   1   H1    1.00    1.218960662   -0.967509541   -3.476413224
   2   O1    8.00   -0.094792025    0.073060333   -2.884699300
   3   H2    1.00    0.007227427   -0.003128860   -1.103518616
   4   O2    8.00    0.091323405   -0.059934071    2.738979876
   5   H3    1.00    0.175379038    1.578707242    3.427969839
   6   H4    1.00   -1.346517627   -0.816392089    3.464634408

 Gradient norm at reference geometry: 0.15820D-02

 ?WARNING: GRADIENT NORM NOT ZERO!

 Normal Modes

                              1 A         2 A         3 A         4 A         5 A  
 Wavenumbers [cm-1]           84.12      132.96      152.00      172.86      353.45
 Intensities [km/mol]          0.00        0.00        0.00        0.00        0.00
 Intensities [relative]        0.00        0.00        0.00        0.00        0.00
           H1X1             0.06003     0.49270     0.09004    -0.01447     0.13886
           H1Y1             0.09602     0.59390    -0.14305     0.06619    -0.12242
           H1Z1            -0.02875     0.04875     0.33822    -0.28215     0.51998
           O1X2             0.01836    -0.03093     0.01152    -0.00636    -0.00674
           O1Y2             0.02574    -0.04042    -0.00189     0.00054     0.00795
           O1Z2             0.00218     0.00170    -0.08278    -0.14821    -0.02667
           H2X3            -0.23357    -0.08031    -0.33573     0.10514    -0.41750
           H2Y3            -0.34467    -0.02453     0.23950    -0.07788     0.29584
           H2Z3             0.00076     0.00516    -0.05236    -0.15686     0.00828
           O2X4            -0.02282    -0.00859    -0.02917     0.01342     0.05108
           O2Y4            -0.03063    -0.01018     0.01869    -0.00937    -0.03649
           O2Z4            -0.00230    -0.00799     0.01298     0.17376     0.03331
           H3X5             0.04736     0.42207     0.23853    -0.08488    -0.22199
           H3Y5             0.20211    -0.08141    -0.16374     0.06211     0.14078
           H3Z5            -0.56310     0.10760     0.41168     0.01617    -0.35026
           H4X6             0.19691    -0.20722     0.28729    -0.11791    -0.20303
           H4Y6             0.12418     0.31502    -0.19940     0.08973     0.13881
           H4Z6             0.59303    -0.06167     0.41028     0.01735    -0.28331

                              6 A         7 A         8 A         9 A        10 A  
 Wavenumbers [cm-1]          605.15     1752.42     1778.69     4099.16     4139.47
 Intensities [km/mol]          0.00        0.00        0.00        0.00        0.00
 Intensities [relative]        0.00        0.00        0.00        0.00        0.00
           H1X1             0.04368    -0.02733     0.16432     0.29524    -0.07884
           H1Y1             0.04638     0.02174    -0.12853    -0.23391     0.06247
           H1Z1             0.01658    -0.09964     0.59838    -0.16356     0.04132
           O1X2            -0.02077     0.00730    -0.04362    -0.02021     0.00511
           O1Y2            -0.02491    -0.00576     0.03444     0.01587    -0.00404
           O1Z2            -0.00080     0.00655    -0.03406    -0.04423     0.00523
           H2X3             0.53780    -0.08778     0.55005     0.02472    -0.00150
           H2Y3             0.70210     0.06974    -0.43730    -0.01723     0.00099
           H2Z3            -0.00178     0.00662    -0.05607     0.86853    -0.12627
           O2X4            -0.02293     0.04158     0.00458     0.00523     0.03009
           O2Y4            -0.03148    -0.02716    -0.00260    -0.00355    -0.02022
           O2Z4            -0.00124    -0.04526    -0.00871    -0.00558    -0.03189
           H3X5             0.04561    -0.54926    -0.08309     0.00810     0.06014
           H3Y5             0.07569    -0.12908    -0.02655     0.10609     0.63614
           H3Z5            -0.26276     0.35863     0.07153     0.04187     0.24886
           H4X6             0.06650    -0.11140    -0.01164    -0.09029    -0.53848
           H4Y6             0.07073     0.56012     0.08707    -0.05052    -0.31464
           H4Z6             0.28045     0.34879     0.06481     0.04369     0.25919

                             11 A        12 A  
 Wavenumbers [cm-1]         4213.25     4232.58
 Intensities [km/mol]          0.00        0.00
 Intensities [relative]        0.00        0.00
           H1X1             0.63869     0.00018
           H1Y1            -0.50589     0.00025
           H1Z1            -0.30323     0.00003
           O1X2            -0.03809    -0.00001
           O1Y2             0.03024    -0.00002
           O1Z2             0.04454     0.00001
           H2X3            -0.03377    -0.00037
           H2Y3             0.02565    -0.00053
           H2Z3            -0.40441    -0.00024
           O2X4             0.00130    -0.03673
           O2Y4            -0.00087    -0.05727
           O2Z4            -0.00141     0.00113
           H3X5             0.00369     0.03171
           H3Y5             0.02951     0.61875
           H3Z5             0.01136     0.26123
           H4X6            -0.02471     0.55159
           H4Y6            -0.01545     0.29064
           H4Z6             0.01184    -0.27917


 Normal Modes of low/zero frequencies

                                  1           2           3           4           5
 Wavenumbers [cm-1]            0.00        0.00        0.00        0.00        0.00
 Intensities [km/mol]          0.00        0.00        0.00        0.00        0.00
 Intensities [relative]        0.00        0.00        0.00        0.00        0.00
           H1X1             0.11064     0.04833    -0.06127    -0.05540    -0.28092
           H1Y1            -0.11618     0.04923    -0.07662     0.24362    -0.23683
           H1Z1             0.11115    -0.12579     0.03374    -0.01755     0.03965
           O1X2             0.19888     0.06221    -0.07990    -0.06373    -0.05038
           O1Y2             0.01348     0.05182    -0.12169     0.19021     0.05618
           O1Z2             0.07905    -0.09952     0.07164     0.05789     0.03623
           H2X3             0.14131     0.09380    -0.00406    -0.02820    -0.03979
           H2Y3            -0.00484     0.04673    -0.09058     0.10604     0.07415
           H2Z3             0.08156    -0.10155     0.06863     0.05226     0.03639
           O2X4             0.02794     0.16230     0.15512     0.04641     0.00597
           O2Y4            -0.03067     0.03617    -0.02907    -0.07812     0.14190
           O2Z4             0.08366    -0.10320     0.06606     0.04790     0.03639
           H3X5             0.17371     0.17982     0.11587     0.02866     0.36536
           H3Y5            -0.04225     0.03406    -0.01520    -0.10984     0.13935
           H3Z5             0.09342    -0.10032     0.03787     0.12551    -0.00140
           H4X6            -0.06859     0.17287     0.21584     0.07458    -0.14422
           H4Y6             0.11089     0.03880    -0.07722    -0.14035     0.46432
           H4Z6             0.03996    -0.07953     0.13618     0.03885     0.07491

                                  6
 Wavenumbers [cm-1]            0.00
 Intensities [km/mol]          0.00
 Intensities [relative]        0.00
           H1X1             0.29494
           H1Y1             0.34577
           H1Z1             0.06925
           O1X2             0.01807
           O1Y2             0.01106
           O1Z2             0.04312
           H2X3             0.02724
           H2Y3             0.06889
           H2Z3             0.04507
           O2X4             0.01878
           O2Y4             0.15792
           O2Z4             0.04657
           H3X5            -0.41575
           H3Y5             0.19200
           H3Z5             0.01853
           H4X6             0.21303
           H4Y6            -0.20704
           H4Z6             0.05101


 Frequencies dumped to record   5400.2
 Frequency information read from record  5400.2

 Zero point energy:  0.04947294 [H]    10858.05 [1/CM]      129.89 [KJ/MOL]


 **********************************************************************************************************************************
 DATASETS  * FILE   NREC   LENGTH (MB)   RECORD NAMES
              1      19       28.80       500      610      700      900      700(1)   950      970     1000      129      960   
                                          VAR    BASINP    GEOM    SYMINP    GEOM     ZMAT    AOBASIS   BASIS     P2S    ABASIS    
                                         1100     1400     1410     1200     1210     1080     1600     1650     1700   
                                           S        T        V       H0       H01     AOSYM     SMH    MOLCAS    OPER   

              2       8        0.56       700     1000      520     2100      700(1)  5300     5450     5400   
                                         GEOM     BASIS   MCVARS     RHF     GEOM     HESS     NMOD     FREQ   

              4       5        1.06      4100     4000     4200     4300     4400   

 PROGRAMS   *        TOTAL      FREQ      OPTG    HF-SCF       INT
 CPU TIMES  *        35.46      1.08     33.82      0.08      0.34
 REAL TIME  *        41.13 SEC
 DISK USED  *        29.65 MB (local),      176.99 MB (total)
 SF USED    *         1.06 MB
 GA USED    *         0.00 MB       (max)       0.00 MB       (current)
 **********************************************************************************************************************************

 Dump information in style MOLDEN to h2o_dimer.molden                                                                

 Molecular orbitals read from record     2100.2  Type=RHF/CANONICAL  
 Occupation numbers read from record     2100.2  Type=RHF/RHF  
 Orbital energies read from record       2100.2  Type=RHF/CANONICAL  
 Redundancy group numbers read from rec  2100.2  Type=RHF/RHF  

 DUMP ORBITAL  1.1 AS ORBITAL    1  occ=    2.0000  eig=  -20.5725  GROUP=   2
 DUMP ORBITAL  2.1 AS ORBITAL    2  occ=    2.0000  eig=  -20.5088  GROUP=   2
 DUMP ORBITAL  3.1 AS ORBITAL    3  occ=    2.0000  eig=   -1.3787  GROUP=   2
 DUMP ORBITAL  4.1 AS ORBITAL    4  occ=    2.0000  eig=   -1.3180  GROUP=   2
 DUMP ORBITAL  5.1 AS ORBITAL    5  occ=    2.0000  eig=   -0.7462  GROUP=   2
 DUMP ORBITAL  6.1 AS ORBITAL    6  occ=    2.0000  eig=   -0.6914  GROUP=   2
 DUMP ORBITAL  7.1 AS ORBITAL    7  occ=    2.0000  eig=   -0.6052  GROUP=   2
 DUMP ORBITAL  8.1 AS ORBITAL    8  occ=    2.0000  eig=   -0.5474  GROUP=   2
 DUMP ORBITAL  9.1 AS ORBITAL    9  occ=    2.0000  eig=   -0.5244  GROUP=   2
 DUMP ORBITAL 10.1 AS ORBITAL   10  occ=    2.0000  eig=   -0.4712  GROUP=   2

 Total charge:      20.000000
 Frequency information read from record  5400.2

 **********************************************************************************************************************************

 HF/6-311G(D,P)//HF/6-311G(D,P) energy=   -152.102906278494

    OPTG(HF-SCF)          HF-SCF
   -152.10290628   -152.03738353
 **********************************************************************************************************************************
 Molpro calculation terminated with 1 warning(s)
