[Molden Format]
[Molpro variables]
_NUMVAR=  1082.000000000000    
_AVOGAD= 0.6022140760000000E+24
_BOLTZ= 0.1380649000000000E-22
_CLIGHTSI=  299792458.0000000    
_JOULE= 0.4359744722207100E-17
_JPCAL=  4.184000000000000    
_PLANCK= 0.6626070150000000E-33
_BOHR= 0.5291772109030000E-10
_ECHARG= 0.1602176634000000E-18
_ENULL= 0.8854187812800001E-11
_MU= 0.1660539066600000E-26
_EMASS= 0.9109383701500001E-30
_AMU2AU=  1822.888486217313    
_CLIGHT=  29979245800.00000    
_EV= 0.3674932217565494E-01
_KJOULE= 0.3808798847133432E-03
_KJOULE/MOL= 0.3808798847133432E-03
_CM= 0.4556335252912009E-05
_CM-1= 0.4556335252912009E-05
_DEB2SI= 0.3335640951981520E-29
_KCAL= 0.1593601437640628E-02
_KCAL/MOL= 0.1593601437640628E-02
_KELVIN= 0.3166811563455608E-05
_HERTZ= 0.1519829846057038E-15
_HZ= 0.1519829846057038E-15
_TOA= 0.5291772109030000    
_TOANG= 0.5291772109030000    
_TORAD= 0.1745329251994330E-01
_TOCM=  219474.6313631965    
_TODEBYE=  2.541746473194078    
_TOE= 0.4803204712570263E-09
_TOEV=  27.21138624598803    
_TOHERTZ=  6579683920501656.    
_TOHZ=  6579683920501656.    
_TOK=  315775.0248040668    
_TOKCAL=  627.5094740630558    
_TOKELVIN=  315775.0248040668    
_TOKJ=  2625.499639479825    
_TOKJOULE=  2625.499639479825    
_TOKG= 0.1660539066600000E-26
_ANG=  1.889726124625770    
_ANGSTROM=  1.889726124625770    
_RPAREF=  0.000000000000000    
_RPADISS=  0.000000000000000    
_IGNORE_UNDEF=  2.000000000000000    
_STRICTCHECK=  0.000000000000000    
!SEWARD=  0.000000000000000    
!MULTI=  0.000000000000000    
!DFMULTI=  0.000000000000000    
!NUMHESS=  0.000000000000000    
_SEW_ONEEL=  0.000000000000000    
_CPPDONE=FALSE
_DKROLL_DONE=  0.000000000000000    
_FNUC_DONE=  0.000000000000000    
_FOCKDONE=TRUE
_GRADONE=FALSE
_HESSDONE=TRUE
_INTDONE=TRUE
_SCFDONE=TRUE
_MODUL_BLOCK=FALSE
_MODUL_SLATER=TRUE
_MODUL_MRCC=FALSE
_MODUL_NBO6=FALSE
_MODUL_NECI=FALSE
_MODUL_AIMS=TRUE
_MODUL_HDF5=FALSE
_MODUL_GECCO=FALSE
_ISWINDOWS=FALSE
_MRCC_EXEC=
_FITC_AO_SAVED=FALSE
_FITC_MO_SAVED=FALSE
_LSTYP=SEWARD
_INTYP=INTS
_GEOMTYP=XYZ
_GRADTYP=ALASKA
_DIRECT=FALSE
_DKHO= -1.000000000000000    
_FNUC=  0.000000000000000    
_SYNCM=  0.000000000000000    
_BASIS=6-311G(D,P)
_ZCENTRE=MASS
_ZORIENT=  1.000000000000000    
_NELEC=  50.00000000000000    
!SPIN=  0.000000000000000    
_OPTCONV= 0.7291734939412773E-04
_QSDSTEP=  0.000000000000000    
_QSDIRC=  0.000000000000000    
_PROGRAM=FREQ
_CPUSTEP=  18.25999999999999    
_SYSSTEP= 0.7999999999999989    
_WALLSTEP=  19.05000000000000    
!DFSCF=  0.000000000000000    
!SCSGRD=  0.000000000000000    
_NCEN=  7.000000000000000    
_CPUTOT=  218.9200000000000    
_DFTEXFAC=  1.000000000000000    
_DMX= -1.428645816275941    
_DMY=-0.2466117659817709E-04
_DMZ= 0.1040184676024888E-04
_DMX_SCF= -1.428645816275941    
_DMY_SCF=-0.2466117659817709E-04
_DMZ_SCF= 0.1040184676024888E-04
_FREQUENCIES= 0.4356391122941973E-04
_HOMO=  25.10000000000000    
_EHOMO=-0.5108157110759771    
_LUMO=  26.10000000000000    
_ELUMO= 0.1203555104000064    
_ENERGY= -698.1472229462256    
_ENERGY_METHOD=HF
_ENERGY_BASIS=6-311G(D,P)
_GEOMETRY_METHOD=HF
_GEOMETRY_BASIS=6-311G(D,P)
_ENUC=  293.9678137087344    
_GRADENERG= -698.1472229462331    
_GRADEXFAC=  9999.000000000000    
_GRADMETHOD=  1.000000000000000    
_NMRMETHOD=  0.000000000000000    
_NMRMAGNET=  0.000000000000000    
_VIRIAL=-0.4713847926338602E-06
!GRID_FREEZE= -1.000000000000000    
!NEESE_INDEX=  0.000000000000000    
_ITERATIONS=  14.00000000000000    
_LASTNELEC=  50.00000000000000    
_LASTSPIN=  0.000000000000000    
_LASTSYM=  1.000000000000000    
_MPP_PROG=  1.000000000000000    
_MSNSTATES=  0.000000000000000    
_RS2PHASE=  0.000000000000000    
_NPROC_MPP=  6.000000000000000    
_NPROC_SMP=  6.000000000000000    
_NUMSTEP=  0.000000000000000    
_OPTCONVMX= 0.4668907667403377E-04
_OPTCONVRMS= 0.1882717865686961E-04
_OPTGRAD= 0.2481408918194109E-05
_OPTGRADMX= 0.2248011932196427E-05
_OPTGRADRMS= 0.6406970276864231E-06
!GMAXLAST= 0.2248011932196427E-05
!DMAXLAST= 0.4668907667403377E-04
!DELAST= 0.2319211489520967E-10
_OPTSTEP= -100.0000000000000    
_ORBITAL=  2100.200000000000    
_PI=  3.141592653589793    
_SEIG_MIN= 0.5957492664472547E-02
_SEWPROP=TRUE
_STATUS=  1.000000000000000    
_SYSTOT=  15.19000000000000    
_VERSION=  2024001.000000000    
_WALLTOT=  235.3500000000000    
_ZPE= 0.4289907569470968E-01
_DATE=24-Apr-24
_LASTORB=0
_OUTPUT=/home/lme/Bachelor_Thesis_Lukas_Meinschad/Rechnungen/h2so4/h2so4.out
_PGROUP=C1
_TIME=12:28:37
_LIBMOL=/usr/local/molpro/molpro_2024.1.0_sockets/lib/
_VIGRDC=  0.000000000000000    
!VIBCNT=  0.000000000000000    
!SURFREC=  0.000000000000000    
!XSURFREC=  0.000000000000000    
!XPOLYREC=  0.000000000000000    
!ROTREC=  0.000000000000000    
!POLYREC=  0.000000000000000    
!DIPREC=  0.000000000000000    
!DIP4DREC=  0.000000000000000    
!DIPROT=  0.000000000000000    
!DIP4DROT=  0.000000000000000    
!PTREC=  0.000000000000000    
!PT4DREC=  0.000000000000000    
!VSCFREC=  0.000000000000000    
!VCIREC=  0.000000000000000    
!PVCIREC=  0.000000000000000    
!VMP2REC=  0.000000000000000    
!VMCSCFREC=  0.000000000000000    
!VMRCIREC=  0.000000000000000    
!VIBSTATEREC=  0.000000000000000    
!VIBSTATECNT=  0.000000000000000    
!VIBINFO=  0.000000000000000    
!GAREC=  0.000000000000000    
!SCFORB=  21002.00000000000    
!DEFCORE=  9.000000000000000    
!SCORE=  1.000000000000000    
!NEWMOL=  0.000000000000000    
!NEWSYM=  0.000000000000000    
_SLFILES=slscratch
_NGSSTO=  9.000000000000000    
_SIN=SIN
_COS=COS
_TAN=TAN
_ACOS=ACOS
_ASIN=ASIN
_ATAN=ATAN
_COSH=COSH
_SINH=SINH
_TANH=TANH
_ABS=ABS
_MOD=MOD
_ERF=ERF
_REFC=REFC
_ERFC=ERFC
_HYPOT=HYPOT
_J0=J0
_J1=J1
_JN=JN
_GAMMA=GAMMA
_LGAMMA=LGAMMA
_Y0=Y0
_Y1=Y1
_YN=YN
_EXP=EXP
_LOG=LOG
_LOG10=LOG10
_SQRT=SQRT
_INT=INT
_NINT=NINT
_MAX=MAX
_MIN=MIN
_COSMO=  0.000000000000000    
_COSMOIT=  0.000000000000000    
_COSMOES=  0.000000000000000    
_COSMOEDS=  0.000000000000000    
_COSMOEC=  0.000000000000000    
_COSMOEDCORR=  0.000000000000000    
_FEPSI=  1.000000000000000    
_SL_IsMM=  0.000000000000000    
_SL_NSYM=  1.000000000000000    
_SL_System_BitSw=  0.000000000000000    
_SL_Unique_atoms=  0.000000000000000    
_SL_GRAD=  0.000000000000000    
_SL_MAXUPD_Hess=  5.000000000000000    
_SL_N_PRINT_COD=  5.000000000000000    
_SL_PRINT_CODES=  0.000000000000000    
_SL_BasType=  0.000000000000000    
_SL_Energy_Pred=  0.000000000000000    
_SL_New_Coords=  0.000000000000000    
_SL_Total_Nuclea=  0.000000000000000    
_SL_Highest_Mltp=  0.000000000000000    
_SL_Ref_Geom=  0.000000000000000    
_SL_Symmetry_ope=  1.000000000000000    
_SL_agrad=  0.000000000000000    
_SL_GrdMax=  0.000000000000000    
_SL_GrdNorm=  0.000000000000000    
_SL_GrdRMS=  0.000000000000000    
_SL_Hss_Q=  0.000000000000000    
_SL_Hss_X=  0.000000000000000    
_SL_BMxOld=  0.000000000000000    
_SL_KtB=  0.000000000000000    
_SL_TROld=  0.000000000000000    
_SL_No_of_Intern=  0.000000000000000    
_SL_Hess=  0.000000000000000    
_SL_K=  0.000000000000000    
!LATTICE= -1.000000000000000    
!NEWLATTICE=  0.000000000000000    
!LATGRAD_VAR=FALSE
!SEW_LATTICE=  1.000000000000000    
!AIC_ONEEL=  0.000000000000000    
!LOCAL=  0.000000000000000    
!SAVEDOM= -1.000000000000000    
!RESTDOM= -1.000000000000000    
!SAVEDOM_HF= -1.000000000000000    
!RESTDOM_HF= -1.000000000000000    
!HESSREC=  5300.200000000000    
!FREQREC=  5400.200000000000    
!NMODREC=  5450.200000000000    
!GTASKS=  0.000000000000000    
!HTASKS=  0.000000000000000    
!SAVEDOM_EOM= -1.000000000000000    
!RESTDOM_EOM= -1.000000000000000    
!GRADSTATE= -1.000000000000000    
!DEBUG=  0.000000000000000    
!CFIT_CPHF=  0.000000000000000    
!RDOMAUX_CPHF=  0.000000000000000    
!THRAO_CPHF= 0.1000000000000000E-11
!THRMO_CPHF= 0.1000000000000000E-11
!THROV_CPHF= 0.1000000000000000E-13
!THRSW_CPHF= 0.1000000000000000E-11
!THRPROD_CPHF= 0.1000000000000000E-11
!THRAOPR_CPHF= 0.1000000000000000E-11
!CFIT_SCFGRD=  0.000000000000000    
!RDOMAUX_SCFGRD=  0.000000000000000    
!THRAO_SCFGRD= 0.1000000000000000E-11
!THRMO_SCFGRD= 0.1000000000000000E-11
!THROV_SCFGRD= 0.1000000000000000E-13
!THRSW_SCFGRD= 0.1000000000000000E-11
!THRPROD_SCFGRD= 0.1000000000000000E-11
!THRAOPR_SCFGRD= 0.1000000000000000E-11
!LOCFIT_SCF=  0.000000000000000    
!LOCFIT_MP2=  0.000000000000000    
_RIDOM=  0.000000000000000    
!CC2_METHOD=  0.000000000000000    
_BASIS2006=FALSE
_SVDDEL= -1.000000000000000    
_SVDDELA= -1.000000000000000    
_SVDDELP= -1.000000000000000    
_SVDDELF= -1.000000000000000    
_SVDDELS= -1.000000000000000    
_SVDDEL_ABS= -1.000000000000000    
_SVDDELA_ABS= -1.000000000000000    
_SVDDELP_ABS= -1.000000000000000    
_SVDDELF_ABS= -1.000000000000000    
_SVDDELS_ABS= -1.000000000000000    
_MAXBASIS=  0.000000000000000    
!OPT_CONICAL=  0.000000000000000    
!CLEARSP_JGRID=  0.000000000000000    
_GRDHYBR=  0.000000000000000    
_STATEGRAD=  1.000000000000000    
_4EXT_NDISKS=  1.000000000000000    
!EMBEDFLAG=  1.000000000000000    
!EMBED=FALSE
!EMBED_F12=FALSE
!EMBEDNUC=  0.000000000000000    
_EMBEDENERGY=  0.000000000000000    
!EMBED_DFC=FALSE
!NUM_VOIDS=  0.000000000000000    
_IBODY=  0.000000000000000    
_EMBE_CORR=  0.000000000000000    
!EMBED_PROJ=FALSE
!EMB_PROJ_ZMU=  1000000.000000000    
!CORRECTION_HF=  0.000000000000000    
!EMBED_AORB=  0.000000000000000    
!EMBED_NACORR=  0.000000000000000    
!EMBED_MP2=FALSE
!EMBED_TRUNC_PERTURBATION=FALSE
!EMBED_FROZEN=  0.000000000000000    
!EMBED_ACTIVE=  0.000000000000000    
_CHANGE_BASIS=FALSE
_RESTORE_BASIS=FALSE
_FIX_EMBED_GUESS=FALSE
_EMBED_SCF=FALSE
_NEOBAS=FALSE
_NEOOVE=FALSE
_PRINEO=FALSE
_HUZINAGA_T=FALSE
_HUZINAGA_F=FALSE
_HUZINAGA=FALSE
_HUZINAGA_CORRECT=FALSE
!FASTLATGRAD=  1.000000000000000    
!FASTVLAMBDA= -1.000000000000000    
!IFORCE= -1.000000000000000    
!USESYM= -1.000000000000000    
_SINDEX=  0.000000000000000    
_AVDOM_OSV=  0.000000000000000    
_AVDOM_PNO=  0.000000000000000    
_AVDOM_PNOCC=  0.000000000000000    
_AVDOM_TNO=  0.000000000000000    
_AVDOM_TNOIT=  0.000000000000000    
_AVDOM_PAO=  0.000000000000000    
_AVDOM_LMO=  0.000000000000000    
_CC2OSV_FLAG=  0.000000000000000    
_EOMCCSD_CONV=FALSE
_TMADC2_FLAG=FALSE
_PROPADC2_FLAG=FALSE
_LEN_VirQ=  0.000000000000000    
_GRDCC2LR_FLAG=FALSE
_GRDADC2_FLAG=FALSE
_RO_VGLOBAL=  0.000000000000000    
_OPT=FALSE
_FREQ=FALSE
_HESS=FALSE
_CMRCC_callName=EMPTY
_CMRCC_callCount=  0.000000000000000    
_GECCO_CIROOT=  1.000000000000000    
_SYM_CATION=  1.000000000000000    
_MON_A=FALSE
_MON_B=FALSE
_MAXGEOM=  100.0000000000000    
!MAXGEOM=  100.0000000000000    
_NCORE=  0.000000000000000    
_NLARGECORE=  0.000000000000000    
GX1= 0.1305520215644647    
GY1= 0.4240100618284604E-05
GZ1=-0.2069809180520782E-05
GX2= 0.7943611504684733    
GY2= -1.018130750128097    
GZ2= 0.6989215790138947    
GX3=-0.8540421063876691    
GY3= 0.7091076592328778    
GZ3= 0.9841222856717382    
GX4=-0.8540251487023808    
GY4=-0.7091496125074171    
GZ4=-0.9841064926305366    
GX5= 0.7943041782568727    
GY5=  1.018167483204707    
GZ5=-0.6989349177009907    
GX6= -1.123323712812748    
GY6=-0.1296362905104815    
GZ6= -1.683602658467865    
GX7= -1.123291826661379    
GY7= 0.1295846265829998    
GZ7=  1.683629368373831    
SX1= 0.2467075657730759    
SY1= 0.8012628909435113E-05
SZ1=-0.3911372481357928E-05
OX2=  1.501125018428056    
OY2= -1.923988276801897    
OZ2=  1.320770366927251    
OX3= -1.613905679971200    
OY3=  1.340019268824597    
OZ3=  1.859721593060309    
OX4= -1.613873634590297    
OY4= -1.340098549023508    
OZ4= -1.859691748537763    
OX5=  1.501017356551417    
OY5=  1.924057692256405    
OZ5= -1.320795573392725    
HX6= -2.122774166513866    
HY6=-0.2449770848772328    
HZ6= -3.181547927196123    
HX7= -2.122713910420611    
HY7= 0.2448794542037697    
HZ7=  3.181598401603213    
[Atoms] Angs
S     1   16         0.1305520216        0.0000042401       -0.0000020698
O     2    8         0.7943611505       -1.0181307501        0.6989215790
O     3    8        -0.8540421064        0.7091076592        0.9841222857
O     4    8        -0.8540251487       -0.7091496125       -0.9841064926
O     5    8         0.7943041783        1.0181674832       -0.6989349177
H     6    1        -1.1233237128       -0.1296362905       -1.6836026585
H     7    1        -1.1232918267        0.1295846266        1.6836293684
[GTO]
   1 0
 s    6  1.00
  0.9341340000D+05  0.7429999567D-03
  0.1396170000D+05  0.5792999662D-02
  0.3169910000D+04  0.2995399825D-01
  0.9024560000D+03  0.1190279931D+00
  0.2971580000D+03  0.3684319785D+00
  0.1087020000D+03  0.5772989663D+00
 s    3  1.00
  0.1087020000D+03  0.1431860600D+00
  0.4315530000D+02  0.6244652619D+00
  0.1810790000D+02  0.2833661188D+00
 s    1  1.00
  0.5560090000D+01  0.1000000000D+01
 s    1  1.00
  0.2131830000D+01  0.1000000000D+01
 s    1  1.00
  0.4204030000D+00  0.1000000000D+01
 s    1  1.00
  0.1360450000D+00  0.1000000000D+01
 p    4  1.00
  0.4950400000D+03  0.8309002513D-02
  0.1172210000D+03  0.6402401937D-01
  0.3777490000D+02  0.2776140840D+00
  0.1405840000D+02  0.7450762254D+00
 p    2  1.00
  0.5565740000D+01  0.6137116720D+00
  0.2262970000D+01  0.4438177628D+00
 p    1  1.00
  0.8079940000D+00  0.1000000000D+01
 p    1  1.00
  0.2774600000D+00  0.1000000000D+01
 p    1  1.00
  0.7714100000D-01  0.1000000000D+01
 d    1  1.00
  0.6500000000D+00  0.1000000000D+01
  
   2 0
 s    6  1.00
  0.8588500000D+04  0.1895150083D-02
  0.1297230000D+04  0.1438590063D-01
  0.2992960000D+03  0.7073200310D-01
  0.8737710000D+02  0.2400010105D+00
  0.2567890000D+02  0.5947970261D+00
  0.3740040000D+01  0.2808020123D+00
 s    3  1.00
  0.4211750000D+02  0.1138890124D+00
  0.9628370000D+01  0.9208111006D+00
  0.2853320000D+01 -0.3274470358D-02
 s    1  1.00
  0.9056610000D+00  0.1000000000D+01
 s    1  1.00
  0.2556110000D+00  0.1000000000D+01
 p    3  1.00
  0.4211750000D+02  0.3651139738D-01
  0.9628370000D+01  0.2371529830D+00
  0.2853320000D+01  0.8197019412D+00
 p    1  1.00
  0.9056610000D+00  0.1000000000D+01
 p    1  1.00
  0.2556110000D+00  0.1000000000D+01
 d    1  1.00
  0.1292000000D+01  0.1000000000D+01
  
   3 0
 s    6  1.00
  0.8588500000D+04  0.1895150083D-02
  0.1297230000D+04  0.1438590063D-01
  0.2992960000D+03  0.7073200310D-01
  0.8737710000D+02  0.2400010105D+00
  0.2567890000D+02  0.5947970261D+00
  0.3740040000D+01  0.2808020123D+00
 s    3  1.00
  0.4211750000D+02  0.1138890124D+00
  0.9628370000D+01  0.9208111006D+00
  0.2853320000D+01 -0.3274470358D-02
 s    1  1.00
  0.9056610000D+00  0.1000000000D+01
 s    1  1.00
  0.2556110000D+00  0.1000000000D+01
 p    3  1.00
  0.4211750000D+02  0.3651139738D-01
  0.9628370000D+01  0.2371529830D+00
  0.2853320000D+01  0.8197019412D+00
 p    1  1.00
  0.9056610000D+00  0.1000000000D+01
 p    1  1.00
  0.2556110000D+00  0.1000000000D+01
 d    1  1.00
  0.1292000000D+01  0.1000000000D+01
  
   4 0
 s    6  1.00
  0.8588500000D+04  0.1895150083D-02
  0.1297230000D+04  0.1438590063D-01
  0.2992960000D+03  0.7073200310D-01
  0.8737710000D+02  0.2400010105D+00
  0.2567890000D+02  0.5947970261D+00
  0.3740040000D+01  0.2808020123D+00
 s    3  1.00
  0.4211750000D+02  0.1138890124D+00
  0.9628370000D+01  0.9208111006D+00
  0.2853320000D+01 -0.3274470358D-02
 s    1  1.00
  0.9056610000D+00  0.1000000000D+01
 s    1  1.00
  0.2556110000D+00  0.1000000000D+01
 p    3  1.00
  0.4211750000D+02  0.3651139738D-01
  0.9628370000D+01  0.2371529830D+00
  0.2853320000D+01  0.8197019412D+00
 p    1  1.00
  0.9056610000D+00  0.1000000000D+01
 p    1  1.00
  0.2556110000D+00  0.1000000000D+01
 d    1  1.00
  0.1292000000D+01  0.1000000000D+01
  
   5 0
 s    6  1.00
  0.8588500000D+04  0.1895150083D-02
  0.1297230000D+04  0.1438590063D-01
  0.2992960000D+03  0.7073200310D-01
  0.8737710000D+02  0.2400010105D+00
  0.2567890000D+02  0.5947970261D+00
  0.3740040000D+01  0.2808020123D+00
 s    3  1.00
  0.4211750000D+02  0.1138890124D+00
  0.9628370000D+01  0.9208111006D+00
  0.2853320000D+01 -0.3274470358D-02
 s    1  1.00
  0.9056610000D+00  0.1000000000D+01
 s    1  1.00
  0.2556110000D+00  0.1000000000D+01
 p    3  1.00
  0.4211750000D+02  0.3651139738D-01
  0.9628370000D+01  0.2371529830D+00
  0.2853320000D+01  0.8197019412D+00
 p    1  1.00
  0.9056610000D+00  0.1000000000D+01
 p    1  1.00
  0.2556110000D+00  0.1000000000D+01
 d    1  1.00
  0.1292000000D+01  0.1000000000D+01
  
   6 0
 s    3  1.00
  0.3386500000D+02  0.2549381454D-01
  0.5094790000D+01  0.1903731086D+00
  0.1158790000D+01  0.8521614860D+00
 s    1  1.00
  0.3258400000D+00  0.1000000000D+01
 s    1  1.00
  0.1027410000D+00  0.1000000000D+01
 p    1  1.00
  0.7500000000D+00  0.1000000000D+01
  
   7 0
 s    3  1.00
  0.3386500000D+02  0.2549381454D-01
  0.5094790000D+01  0.1903731086D+00
  0.1158790000D+01  0.8521614860D+00
 s    1  1.00
  0.3258400000D+00  0.1000000000D+01
 s    1  1.00
  0.1027410000D+00  0.1000000000D+01
 p    1  1.00
  0.7500000000D+00  0.1000000000D+01


[MO]
 Sym=      1.1
 Ene=     -92.2794
 Spin= Alpha
 Occup=    2.000000
1 0.41107660251204
2 0.65498364071998
3 0.012180031423069
4 -0.001406310524682
5 0.000462135819080
6 -0.000055020899994
7 -0.000055382079878
8 -0.000000001022925
9 0.000000000320057
10 0.000013878849181
11 0.000000000237235
12 -0.000000000063696
13 -0.000008179440279
14 -0.000000000062561
15 -0.000000000024995
16 0.000026803501901
17 0.000000000682462
18 -0.000000000305627
19 0.000020162793207
20 0.000000000569329
21 -0.000000000217333
22 -0.000005936610231
23 0.000007288986510
24 -0.000001352376279
25 -0.000000000293527
26 0.000000000395216
27 -0.000020022699710
28 -0.000000255833646
29 0.000003136319011
30 0.000006193250573
31 -0.000070388508786
32 -0.000004237759100
33 0.000004886935803
34 -0.000003379865194
35 0.000018753867465
36 -0.000023901174695
37 0.000016437225705
38 0.000017361065063
39 -0.000039303334599
40 0.000026926313042
41 0.000004018780424
42 -0.000007839305465
43 0.000003820525041
44 0.000016493348493
45 -0.000011440935176
46 0.000017178421667
47 0.000000197248201
48 0.000001034021142
49 0.000008297980177
50 -0.000046219823047
51 0.000003624593484
52 -0.000002968042659
53 -0.000004511061517
54 -0.000009057194888
55 0.000009328324889
56 0.000011348245244
57 -0.000018076616798
58 0.000026742309167
59 -0.000001762773212
60 0.000000250186987
61 0.000001096349954
62 -0.000001346536941
63 0.000009755190050
64 0.000013822420261
65 -0.000005580237341
66 0.000000197248700
67 0.000001034018080
68 0.000008298031698
69 -0.000046220064536
70 0.000003624537334
71 0.000002968209486
72 0.000004511007648
73 -0.000009056960136
74 -0.000009328745524
75 -0.000011348133487
76 -0.000018075073565
77 -0.000026743537753
78 0.000001763113654
79 0.000000250583760
80 0.000001095443784
81 -0.000001346027544
82 -0.000009755308869
83 -0.000013822228396
84 -0.000005580769831
85 -0.000000255843201
86 0.000003136362224
87 0.000006193141259
88 -0.000070389063800
89 -0.000004237489484
90 -0.000004887129463
91 0.000003379923476
92 0.000018752673587
93 0.000023902213366
94 -0.000016437621437
95 0.000017358991812
96 0.000039304245430
97 -0.000026926701354
98 0.000004020373545
99 -0.000007840601876
100 0.000003820228331
101 -0.000016492506491
102 0.000011440180979
103 0.000017179221098
104 -0.000001877134301
105 0.000027578729107
106 0.000013987034364
107 0.000009879858350
108 0.000002114089649
109 0.000010942475061
110 -0.000001877163599
111 0.000027578575754
112 0.000013986980739
113 0.000009879716261
114 -0.000002113644437
115 -0.000010942684263
 Sym=      2.1
 Ene=     -20.6547
 Spin= Alpha
 Occup=    2.000000
1 0.000000027427132
2 0.000000067176741
3 -0.000000053337100
4 -0.000000661286823
5 0.000000344894061
6 0.000006994258743
7 0.000000071690231
8 -0.000005276691731
9 -0.000009337699498
10 0.000000290500904
11 -0.000031895988741
12 -0.000041275039580
13 -0.000000407941280
14 0.000069686385170
15 0.000062150006658
16 -0.000001665204896
17 0.000065333718034
18 0.000254933674346
19 -0.000001415552332
20 0.000210138584552
21 0.000021844769823
22 0.000000156611427
23 -0.000000362825067
24 0.000000206213641
25 -0.000078045603157
26 -0.000124817123020
27 0.000000604475036
28 -0.000015138139274
29 -0.000011237455920
30 -0.000011981787025
31 0.000024204371913
32 0.000002004477481
33 -0.000006684334808
34 -0.000004566584221
35 -0.000003117120543
36 0.000006929428028
37 -0.000005865634008
38 0.000031100001017
39 -0.000078314117050
40 -0.000029775807049
41 -0.000002598344899
42 -0.000005841599633
43 0.000008439944532
44 0.000007835445127
45 0.000001580133131
46 -0.000002042166689
47 0.39267872209404
48 0.33586868934911
49 0.004056947187186
50 -0.000457510738882
51 0.000366471999072
52 -0.001164681648417
53 0.000054802485771
54 -0.000095453912208
55 0.000386243103306
56 -0.000066962192895
57 -0.000042152339117
58 -0.000079399594438
59 0.000049783269478
60 0.000012342720394
61 0.000007568140720
62 -0.000019910861114
63 0.000020326340644
64 0.000073228637621
65 0.000008311843745
66 -0.38714080776207
67 -0.33113198941424
68 -0.003999348513649
69 0.000448734426612
70 -0.000361239816523
71 -0.001148368615821
72 0.000053939225875
73 0.000094092349020
74 0.000380822229624
75 -0.000066199538035
76 0.000041178416150
77 -0.000079022748003
78 0.000047159630450
79 -0.000012070043884
80 -0.000007438336769
81 0.000019508380653
82 0.000020024933083
83 0.000072243601536
84 -0.000008397582797
85 0.000013233204368
86 0.000009528695871
87 0.000012749275600
88 -0.000027663442662
89 -0.000001852903649
90 -0.000006592978785
91 -0.000004591492615
92 0.000002950627316
93 0.000006759034997
94 -0.000005863161607
95 -0.000029440560856
96 -0.000077241372358
97 -0.000030089017407
98 0.000002515589499
99 0.000005866991689
100 -0.000008382581188
101 0.000007767685923
102 0.000001537280744
103 0.000001960159961
104 -0.000130886382192
105 -0.000068167481404
106 -0.000075006682446
107 -0.000035995585245
108 -0.000000979543579
109 -0.000051445004020
110 0.000133008815488
111 0.000067935077037
112 0.000075164973434
113 0.000036297698257
114 -0.000001012247809
115 -0.000051859496409
 Sym=      3.1
 Ene=     -20.6546
 Spin= Alpha
 Occup=    2.000000
1 0.000003862758766
2 0.000009460908665
3 -0.000007511489331
4 -0.000093134640431
5 0.000048620045860
6 0.000984829271077
7 0.000010089245073
8 0.000000037728710
9 0.000000066208849
10 0.000040860561614
11 0.000000227473727
12 0.000000292839409
13 -0.000057300818862
14 -0.000000495932398
15 -0.000000441288697
16 -0.000234635772004
17 -0.000000471288281
18 -0.000001807197424
19 -0.000198543732196
20 -0.000001498444569
21 -0.000000153055983
22 0.000021905029706
23 -0.000050647193714
24 0.000028742164008
25 0.000000557218490
26 0.000000884406886
27 0.000085485496662
28 -0.000134077760580
29 -0.000120284051385
30 0.000054113891896
31 -0.000243693820543
32 0.000010639345715
33 -0.000006397369033
34 0.000001790649716
35 -0.000011655706410
36 0.000011980179943
37 -0.000000142055104
38 0.000116338359119
39 -0.000075083700527
40 0.000022278755507
41 -0.000005767624061
42 0.000001790472778
43 0.000003977151283
44 0.000004698417076
45 0.000002996074410
46 -0.000005757417238
47 0.38714258600324
48 0.33113160359226
49 0.004026851154357
50 -0.000614782639188
51 0.000361171194084
52 -0.001142071604197
53 0.000060604267085
54 -0.000093570263543
55 0.000379445268070
56 -0.000053277434937
57 -0.000068660512561
58 -0.000025840593716
59 0.000184322007238
60 0.000019036317566
61 0.000008908304745
62 -0.000027944622311
63 0.000021017893504
64 0.000068969772344
65 -0.000006337657505
66 0.39268047419981
67 0.33586830944294
68 0.004084063853747
69 -0.000621219351422
70 0.000366272920917
71 0.001158522389745
72 -0.000061379484052
73 -0.000094893295571
74 -0.000384899787688
75 0.000054223771877
76 -0.000069258425478
77 0.000026963644620
78 -0.000185008798934
79 0.000019208755350
80 0.000009012472535
81 -0.000028221227885
82 -0.000021303547642
83 -0.000070004302894
84 -0.000006222176716
85 -0.000134281449801
86 -0.000120433413134
87 0.000053938175218
88 -0.000243322916757
89 0.000010666542302
90 0.000006492189417
91 -0.000001725815744
92 -0.000011698731043
93 -0.000012078326474
94 0.000000225760129
95 0.000116764547233
96 0.000076193531389
97 -0.000021855452911
98 -0.000005803561402
99 0.000001706932282
100 0.000004096629120
101 -0.000004809607898
102 -0.000003017760130
103 -0.000005785878069
104 0.000150411343191
105 -0.000015860255966
106 0.000011697854345
107 0.000021613688859
108 0.000002405086967
109 0.000029513574464
110 0.000148536766505
111 -0.000016826580402
112 0.000010631659027
113 0.000021099834518
114 -0.000002390464599
115 -0.000028780241973
 Sym=      4.1
 Ene=     -20.5817
 Spin= Alpha
 Occup=    2.000000
1 0.000000199022315
2 0.000000431165099
3 0.000000016799167
4 -0.000005696739414
5 0.000007111349920
6 0.000021580913264
7 -0.000000194535461
8 -0.000012776160578
9 0.000008458816165
10 -0.000001660630956
11 -0.000087491283906
12 0.000060133000909
13 0.000003372070444
14 0.000149603267128
15 -0.000103936642321
16 0.000003654558116
17 0.000315603429715
18 -0.000227623608135
19 0.000003456627919
20 0.000280415561074
21 -0.000269496487174
22 -0.000001209430422
23 0.000001951143614
24 -0.000000741713192
25 0.000151259464477
26 -0.000101273692210
27 -0.000004107656439
28 -0.37916139714262
29 -0.32430890882104
30 -0.003803913557024
31 0.000476186912653
32 0.000652466676938
33 -0.000970286771183
34 0.000646335434587
35 -0.000190407738765
36 0.000304920783023
37 -0.000209227133449
38 -0.000020920097432
39 -0.000082527664361
40 0.000069187249423
41 -0.000001926742860
42 0.000001923071327
43 0.000000003671532
44 -0.000004563389211
45 0.000007557973923
46 -0.000004844113690
47 -0.000010410376068
48 -0.000009485057986
49 0.000000704729638
50 0.000014900930734
51 0.000003558578240
52 -0.000007976569991
53 0.000001664370587
54 -0.000011572350697
55 0.000013365216446
56 0.000002926510230
57 0.000012125071188
58 -0.000118830569374
59 0.000075399463527
60 -0.000003143051896
61 0.000007496209383
62 -0.000004353157486
63 -0.000006713986015
64 0.000000557718836
65 -0.000002000716220
66 0.000017928642874
67 0.000015812356754
68 0.000001071241453
69 -0.000026393075401
70 -0.000004096210844
71 -0.000008109376257
72 0.000001408867271
73 0.000011801169130
74 0.000012973415941
75 0.000003088317705
76 -0.000016842246219
77 -0.000121644264588
78 0.000074191983984
79 0.000003136617482
80 -0.000007488693134
81 0.000004352075652
82 -0.000006759776168
83 0.000000355997129
84 0.000002449555783
85 0.40042480007324
86 0.34249611355451
87 0.004018230108917
88 -0.000504998978926
89 -0.000689466580865
90 -0.001023686633323
91 0.000681791443844
92 0.000201697974961
93 0.000320080484702
94 -0.000219314512672
95 0.000018589719967
96 -0.000079927387838
97 0.000067226799375
98 0.000002103064182
99 -0.000002130140144
100 0.000000027075961
101 -0.000004701142949
102 0.000007868472069
103 0.000005435296566
104 0.000000853665545
105 0.000071009544589
106 -0.000096853249245
107 -0.000001913412281
108 -0.000018813391800
109 0.000001849067145
110 -0.000000570004457
111 -0.000069112341945
112 0.000097562164908
113 0.000002508281247
114 -0.000018207943440
115 0.000001120193122
 Sym=      5.1
 Ene=     -20.5816
 Spin= Alpha
 Occup=    2.000000
1 0.000007296263115
2 0.000015806426956
3 0.000000617467612
4 -0.000208845451820
5 0.000260671368755
6 0.000791273276170
7 -0.000007144966954
8 0.000000348286727
9 -0.000000230647032
10 -0.000060972730592
11 0.000002384766380
12 -0.000001639529318
13 0.000123785286449
14 -0.000004077049588
15 0.000002833470615
16 0.000134278587226
17 -0.000008605245556
18 0.000006207807461
19 0.000127017081626
20 -0.000007645480601
21 0.000007349505499
22 -0.000044072395441
23 0.000071312228488
24 -0.000027239833046
25 -0.000004129863635
26 0.000002765789672
27 -0.000150467884024
28 0.40042630634580
29 0.34249625193683
30 0.004035423757093
31 -0.000541516355484
32 -0.000697519027840
33 0.001005546069769
34 -0.000667877576665
35 0.000212609067343
36 -0.000286277323342
37 0.000190709276284
38 -0.000042253228474
39 -0.000045426012272
40 0.000034074519313
41 0.000003294777266
42 -0.000003864587797
43 0.000000569810531
44 0.000002665050165
45 -0.000005914896513
46 0.000010992044441
47 0.000138168535990
48 0.000116300234961
49 0.000032568738899
50 -0.000211320624015
51 -0.000009965329843
52 0.000002650101097
53 0.000004644829642
54 0.000004515239268
55 0.000006837695669
56 -0.000003057657566
57 -0.000086989329824
58 0.000054875673692
59 0.000020099229455
60 -0.000000037885499
61 -0.000000056874197
62 0.000000094759696
63 0.000001034752196
64 0.000003684703976
65 0.000008289489179
66 0.000137396404367
67 0.000115610950322
68 0.000032558650361
69 -0.000210193690707
70 -0.000009756514786
71 -0.000002211927319
72 -0.000004728371027
73 0.000003878166814
74 -0.000007555539860
75 0.000002893104021
76 -0.000086196730220
77 -0.000048321100778
78 -0.000024177597798
79 -0.000000209280960
80 0.000000351798478
81 -0.000000142517518
82 -0.000000667012188
83 -0.000003710074043
84 0.000008167872124
85 0.37916298679876
86 0.32430905446141
87 0.003822076122867
88 -0.000514756358366
89 -0.000660868367407
90 -0.000951190082728
91 0.000631663608739
92 0.000201900652471
93 0.000269238412297
94 -0.000179023401796
95 -0.000043334161775
96 0.000049855676281
97 -0.000037794910055
98 0.000003184133404
99 -0.000003753073537
100 0.000000568940133
101 -0.000002411348893
102 0.000005493193653
103 0.000010710705312
104 0.000005176892397
105 0.000032920325476
106 0.000015638444628
107 0.000010951479539
108 -0.000010596731457
109 0.000013338064020
110 0.000005215594366
111 0.000036742802715
112 0.000010335632337
113 0.000010830175287
114 0.000011606985948
115 -0.000013419699800
 Sym=      6.1
 Ene=      -9.2501
 Spin= Alpha
 Occup=    2.000000
1 -0.11980620244368
2 -0.32508123078749
3 0.53420588782991
4 0.58548430056229
5 0.037831342716591
6 -0.006707868268707
7 -0.001377127128446
8 -0.000000019737085
9 0.000000003405724