
 Working directory              : /tmp/lme/molpro.nbwU2f3T26/
 Global scratch directory       : /tmp/lme/molpro.nbwU2f3T26/
 Wavefunction directory         : /home/lme/wfu/
 Main file repository           : /tmp/lme/molpro.nbwU2f3T26/

 id        : liedlgroup

 Nodes     nprocs
 sv1-c724     6
 GA implementation: MPI file
 GA implementation (serial work in mppx): MPI file

 Using customized tuning parameters: mindgm=1; mindgv=20; mindgc=4; mindgr=1; noblas=0; minvec=7
 default implementation of scratch files=sf  


 Variables initialized (1042), CPU time= 0.01 sec
 ***,carbon dioxide
 memory, 100, m                                                                  ! Memory Requirements
                          ! gthresh, optgrad=1.d-7,twoint=1.d-14,prefac=1.d-16 ! Guntram Rezept um numerischen Schmutz zu entfernen
 orient,mass
 geometry=struc.xyz
 Including file /home/lme/Bachelor_Thesis_Lukas_Meinschad/Rechnungen/crest_meres/SPLIT/STRUC1/struc.xyz
 
 mass, iso
 basis=6-311g(d,p)                                                               !Pople basis set, du Nasenbohrer
 
 {hf
 start,atden}
 
 optg
 {frequencies, symm=auto, print=0,analytical}
 put,molden,molden.input
 
 Commands initialized (847), CPU time= 0.01 sec, 718 directives.
 Default parameters read. Elapsed time= 0.13 sec

 Checking input...
 Passed
1


                                         ***  PROGRAM SYSTEM MOLPRO  ***
                                       Copyright, TTI GmbH Stuttgart, 2015
                                    Version 2024.1 linked Wed Jan 31 11:42:09 2024


 **********************************************************************************************************************************
 LABEL *   carbon dioxide                                                                                                                                                
  (6 PROC) 64 bit mpp version                                                            DATE: 29-Apr-24          TIME: 14:28:41  
 **********************************************************************************************************************************

 SHA1:             675817fde4514a4a933b69e420913a90cee4ef91
 **********************************************************************************************************************************

 Memory per process:       100 MW
 Total memory per node:    600 MW

 GA preallocation disabled
 GA check disabled

 Variable memory set to 100.0 MW

 ZCENTRE=MASS


 Geometry recognized as XYZ



 Using masses of most abundant isotopes

 **********************************************************************************************************************************
 SETTING BASIS          =    6-311G(D,P)


 Recomputing integrals since basis changed


 Using spherical harmonics

 Library entry O      S 6-311G               selected for orbital group  1
 Library entry O      P 6-311G               selected for orbital group  1
 Library entry O      D 6-311G*              selected for orbital group  1
 Library entry H      S 6-311G               selected for orbital group  2
 Library entry H      P 6-311G**             selected for orbital group  2


 PROGRAM * SEWARD (Integral evaluation for generally contracted gaussian basis sets)     Author: Roland Lindh, 1990

 Geometry written to block  1 of record 700

 Orientation using atomic masses  
 Molecule type: Asymmetric top
 Rotational constants:       6.8742019      3.5677744      7.0769437 GHz

 Point group  C1  



 ATOMIC COORDINATES

 NR  ATOM    CHARGE       X              Y              Z

   1  O       8.00    2.983147214    0.119797098   -0.398895282
   2  H       1.00    3.968206009   -1.396007449   -0.284505994
   3  H       1.00    1.942664078    0.168207303    1.118436439
   4  O       8.00   -1.831428943   -0.098250799   -2.414436410
   5  H       1.00   -0.001478430   -0.046929048   -2.202951205
   6  H       1.00   -2.249206060    1.239713511   -3.560540627
   7  O       8.00   -1.134104695   -0.078663022    2.822921076
   8  H       1.00   -1.916971347   -0.357211545    1.184393631
   9  H       1.00   -2.022754396    1.298710853    3.592977304

 Bond lengths in Bohr (Angstrom)

 1-2  1.811377697  1-3  1.840446754  4-5  1.842845298  4-6  1.810591366  7-8  1.837183078
     ( 0.958539798)     ( 0.973922480)     ( 0.975191735)     ( 0.958123689)     ( 0.972195417)

 7-9  1.811033870
     ( 0.958357852)

 Bond angles

  2-1-3  106.10455906   5-4-6  106.33122475   8-7-9  106.58539055

 NUCLEAR CHARGE:                   30
 NUMBER OF PRIMITIVE AOS:         144
 NUMBER OF SYMMETRY AOS:          141
 NUMBER OF CONTRACTIONS:           90   (   90A   )
 NUMBER OF INNER CORE ORBITALS:     0   (    0A   )
 NUMBER OF OUTER CORE ORBITALS:     3   (    3A   )
 NUMBER OF VALENCE ORBITALS:       18   (   18A   )


 NUCLEAR REPULSION ENERGY   85.21632259


 Eigenvalues of metric

         1 0.124E-01 0.158E-01 0.185E-01 0.353E-01 0.366E-01 0.400E-01 0.515E-01 0.538E-01


 Contracted 2-electron integrals neglected if value below      1.0D-11
 AO integral compression algorithm  1   Integral accuracy      1.0D-11

     27.001 MB (compressed) written to integral file ( 35.1%)

     Node minimum: 3.146 MB, node maximum: 5.767 MB


 NUMBER OF SORTED TWO-ELECTRON INTEGRALS:    1397418.     BUFFER LENGTH:  32768
 NUMBER OF SEGMENTS:   1  SEGMENT LENGTH:    1397418      RECORD LENGTH: 524288

 Memory used in sort:       1.95 MW

 SORT1 READ     9755314. AND WROTE     1035034. INTEGRALS IN      3 RECORDS. CPU TIME:     0.15 SEC, REAL TIME:     0.16 SEC
 SORT2 READ     6039506. AND WROTE     8386560. INTEGRALS IN    126 RECORDS. CPU TIME:     0.05 SEC, REAL TIME:     0.06 SEC

 Node minimum:     1396054.  Node maximum:     1399467. integrals

 OPERATOR DM      FOR CENTER  0  COORDINATES:    0.000000    0.000000    0.000000


 **********************************************************************************************************************************
 DATASETS  * FILE   NREC   LENGTH (MB)   RECORD NAMES
              1      18       29.03       500      610      700      900      950      970     1000      129      960     1100   
                                          VAR    BASINP    GEOM    SYMINP    ZMAT    AOBASIS   BASIS     P2S    ABASIS      S 
                                         1400     1410     1200     1210     1080     1600     1650     1700   
                                           T        V       H0       H01     AOSYM     SMH    MOLCAS    OPER   

 PROGRAMS   *        TOTAL       INT
 CPU TIMES  *         0.71      0.48
 REAL TIME  *         0.84 SEC
 DISK USED  *        29.49 MB (local),      269.72 MB (total)
 GA USED    *         0.00 MB       (max)       0.00 MB       (current)
 **********************************************************************************************************************************


 Program * Restricted Hartree-Fock

 Orbital guess generated from atomic densities.

 Initial occupancy:  15

 NELEC=   30   SYM=1   MS2= 0   THRE=1.0D-08   THRD=1.0D-06   THRG=1.0D-06  HFMA2=F  DIIS_START=2   DIIS_MAX=10   DIIS_INCORE=F

 Level shifts:    0.00 (CLOSED)    0.00 (OPEN)    0.30 (GAP_MIN)

 ITER           ETOT              DE          GRAD        DDIFF     DIIS  NEXP   TIME(IT)  TIME(TOT)  DIAG
   1     -228.07080187    -228.07080187     0.00D+00     0.51D-01     0     0       0.01      0.05    start
   2     -228.14294417      -0.07214230     0.10D-01     0.73D-02     1     0       0.02      0.07    diag
   3     -228.16292423      -0.01998007     0.54D-02     0.24D-02     2     0       0.02      0.09    diag
   4     -228.16352013      -0.00059589     0.65D-03     0.52D-03     3     0       0.01      0.10    diag
   5     -228.16356723      -0.00004710     0.15D-03     0.18D-03     4     0       0.02      0.12    diag
   6     -228.16357018      -0.00000295     0.33D-04     0.46D-04     5     0       0.02      0.14    diag
   7     -228.16357031      -0.00000012     0.68D-05     0.94D-05     6     0       0.01      0.15    diag
   8     -228.16357031      -0.00000001     0.22D-05     0.17D-05     7     0       0.02      0.17    fixocc
   9     -228.16357031      -0.00000000     0.59D-06     0.61D-06     8     0       0.01      0.18    diag
  10     -228.16357031      -0.00000000     0.11D-06     0.95D-07     0     0       0.02      0.20    diag/orth

 Final occupancy:  15

 !RHF STATE 1.1 Energy               -228.163570313744
  RHF One-electron energy            -484.643426419114
  RHF Two-electron energy             171.263533518266
  RHF Kinetic energy                  228.110548335586
  RHF Nuclear energy                   85.216322587104
  RHF Virial quotient                  -1.000232439835

 !RHF STATE 1.1 Dipole moment          -0.11051061     0.40541878    -0.03746900
 Dipole moment /Debye                  -0.28088996     1.03047175    -0.09523670

 Orbital energies:

           1.1          2.1          3.1          4.1          5.1          6.1          7.1          8.1          9.1         10.1
    -20.550139   -20.548827   -20.543685    -1.357423    -1.337506    -1.333292    -0.739767    -0.706332    -0.702224    -0.592993

          11.1         12.1         13.1         14.1         15.1         16.1         17.1
     -0.587492    -0.556076    -0.509518    -0.499398    -0.493507     0.142024     0.182551


 HOMO     15.1    -0.493507 =     -13.4290eV
 LUMO     16.1     0.142024 =       3.8647eV
 LUMO-HOMO         0.635531 =      17.2937eV

 Orbitals saved in record  2100.2


 **********************************************************************************************************************************
 DATASETS  * FILE   NREC   LENGTH (MB)   RECORD NAMES
              1      18       29.03       500      610      700      900      950      970     1000      129      960     1100   
                                          VAR    BASINP    GEOM    SYMINP    ZMAT    AOBASIS   BASIS     P2S    ABASIS      S 
                                         1400     1410     1200     1210     1080     1600     1650     1700   
                                           T        V       H0       H01     AOSYM     SMH    MOLCAS    OPER   

              2       4        0.64       700     1000      520     2100   
                                         GEOM     BASIS   MCVARS     RHF  

 PROGRAMS   *        TOTAL    HF-SCF       INT
 CPU TIMES  *         0.91      0.20      0.48
 REAL TIME  *         1.06 SEC
 DISK USED  *        30.28 MB (local),      274.44 MB (total)
 GA USED    *         0.00 MB       (max)       0.00 MB       (current)
 **********************************************************************************************************************************


 PROGRAM * OPT (Geometry optimization)     Authors: F. Eckert and H.-J. Werner


 BFGS update of hessian

 *** Long output written to logfile /home/lme/Bachelor_Thesis_Lukas_Meinschad/Rechnungen/crest_meres/SPLIT/STRUC1/lol.log ***


 Geometry optimization using default procedure for command HF-SCF

 Geometry written to block  1 of record 700

 PQS Optimization using delocalized internal coordinates

 Point group c1. Number of degrees of freedom:   21

 ITER.   ENERGY(OLD)    ENERGY(NEW)      DE          GRADMAX     GRADNORM    GRADRMS     STEPMAX     STEPLEN     STEPRMS   CPU-time
   1  -228.16357031  -228.16529354    -0.00172323  0.02445085  0.05453538  0.01190060  0.24842614  0.38282580  0.08353944      0.86
   2  -228.16529354  -228.16533354    -0.00004000  0.01454335  0.02004378  0.00437391  0.33441648  0.50000000  0.10910895      1.69
   3  -228.16533354  -228.16731083    -0.00197729  0.01307474  0.03302088  0.00720575  0.14184240  0.24543548  0.05355841      2.55
   4  -228.16731083  -228.16746762    -0.00015679  0.01082298  0.01419142  0.00309682  0.09474732  0.13607172  0.02969328      3.37
   5  -228.16746762  -228.16774493    -0.00027731  0.00913960  0.01312983  0.00286516  0.05981955  0.09824468  0.02143875      4.23
   6  -228.16774493  -228.16781062    -0.00006570  0.00132458  0.00283077  0.00061773  0.06724103  0.11240991  0.02452985      5.10
   7  -228.16781062  -228.16786799    -0.00005737  0.00182056  0.00326603  0.00071271  0.04233201  0.07677841  0.01675442      5.92
   8  -228.16786799  -228.16789478    -0.00002679  0.00155662  0.00206582  0.00045080  0.02408962  0.05995067  0.01308231      6.76
   9  -228.16789478  -228.16790094    -0.00000616  0.00040279  0.00097239  0.00021219  0.01079346  0.02252383  0.00491510      7.58
  10  -228.16790094  -228.16790748    -0.00000653  0.00094208  0.00117935  0.00025735  0.01420308  0.02094335  0.00457021      8.42
  11  -228.16790748  -228.16791657    -0.00000909  0.00040324  0.00068202  0.00014883  0.02664626  0.04156619  0.00907049      9.25
  12  -228.16791657  -228.16791892    -0.00000235  0.00031290  0.00047073  0.00010272  0.00879744  0.01902453  0.00415149     10.05
  13  -228.16791892  -228.16792003    -0.00000112  0.00018449  0.00035028  0.00007644  0.00445017  0.01049800  0.00229085     10.91
  14  -228.16792003  -228.16792173    -0.00000170  0.00014555  0.00029985  0.00006543  0.00886335  0.01778200  0.00388035     11.76
  15  -228.16792173  -228.16792366    -0.00000193  0.00017792  0.00036364  0.00007935  0.01318544  0.02425029  0.00529185     12.59
  16  -228.16792366  -228.16792508    -0.00000143  0.00027027  0.00040725  0.00008887  0.01292329  0.02309823  0.00504045     13.43
  17  -228.16792508  -228.16792557    -0.00000049  0.00018943  0.00027875  0.00006083  0.00560456  0.01025626  0.00223810     14.24

 END OF GEOMETRY OPTIMIZATION.

 Geometry written to block  1 of record 700

 Recomputing wavefunction for reoriented structure

 Current geometry (xyz format, in Angstrom)

    9
 HF-SCF000/6-311G(D,P)  ENERGY=-228.16792557
 O          1.6581028551        0.0580846632       -0.0126016991
 H          2.2336551458       -0.6665917854        0.1572354770
 H          1.0542402683        0.0930197580        0.7183886928
 O         -0.8390622577       -0.0506430540       -1.4376608044
 H          0.0962727169       -0.0483731437       -1.2779394266
 H         -1.0042559646        0.6439322354       -2.0500316778
 O         -0.8124968657       -0.0415181711        1.4486470242
 H         -1.1673000240       -0.0874937639        0.5701202501
 H         -1.3164658860        0.6063263268        1.9078655060

 **********************************************************************************************************************************


 **********************************************************************************************************************************
 DATASETS  * FILE   NREC   LENGTH (MB)   RECORD NAMES
              1      18       29.03       500      610      700      900      950      970     1000      129      960     1100   
                                          VAR    BASINP    GEOM    SYMINP    ZMAT    AOBASIS   BASIS     P2S    ABASIS      S 
                                         1400     1410     1200     1210     1080     1600     1650     1700   
                                           T        V       H0       H01     AOSYM     SMH    MOLCAS    OPER   

              2       4        0.64       700     1000      520     2100   
                                         GEOM     BASIS   MCVARS     RHF  

 PROGRAMS   *        TOTAL      OPTG    HF-SCF       INT
 CPU TIMES  *        15.68     14.77      0.20      0.48
 REAL TIME  *        17.30 SEC
 DISK USED  *        30.31 MB (local),      274.63 MB (total)
 SF USED    *         0.07 MB
 GA USED    *         0.00 MB       (max)       0.00 MB       (current)
 **********************************************************************************************************************************


 PROGRAM * HESSIAN

 PROGRAM * MCKINLEY (Hessian of the energy)     Author: A. Bernhardsson, R. Lindh

 Orbitals from record         2100.2

 Number of closed-shell orbitals: 15 ( 15 )
 Number of occupied orbitals:     15 ( 15 )

 Number of electrons= 30     Singlet     Space symmetry=1      Wavefunction type: CLOSED          


 McKinley needed      3.43 seconds of CPU time

 Entering CPHF calculation

 CPHF needed 219 iterations for 27 perturbations.  Total CPU time:    4.62 sec


 HF-SCF hessian saved to record  5300.2

 PROGRAM * FREQUENCIES (Calculation of harmonic vibrational spectra for HF-SCF)


 Permanent Dipole Moment [debye]
     1-   3    0.000000    0.000000    0.000000

 Dipole Moment Norm    0.0000000 [debye]

 Dipole Moment Derivatives [debye/ang]
              1             2             3             4             5             6             7             8
    1    0.00000000    0.00000000    0.00000000    0.00000000    0.00000000    0.00000000    0.00000000    0.00000000
    2    0.00000000    0.00000000    0.00000000    0.00000000    0.00000000    0.00000000    0.00000000    0.00000000
    3    0.00000000    0.00000000    0.00000000    0.00000000    0.00000000    0.00000000    0.00000000    0.00000000
              9            10            11            12            13            14            15            16
    1    0.00000000    0.00000000    0.00000000    0.00000000    0.00000000    0.00000000    0.00000000    0.00000000
    2    0.00000000    0.00000000    0.00000000    0.00000000    0.00000000    0.00000000    0.00000000    0.00000000
    3    0.00000000    0.00000000    0.00000000    0.00000000    0.00000000    0.00000000    0.00000000    0.00000000
             17            18            19            20            21            22            23            24
    1    0.00000000    0.00000000    0.00000000    0.00000000    0.00000000    0.00000000    0.00000000    0.00000000
    2    0.00000000    0.00000000    0.00000000    0.00000000    0.00000000    0.00000000    0.00000000    0.00000000
    3    0.00000000    0.00000000    0.00000000    0.00000000    0.00000000    0.00000000    0.00000000    0.00000000
             25            26            27
    1    0.00000000    0.00000000    0.00000000
    2    0.00000000    0.00000000    0.00000000
    3    0.00000000    0.00000000    0.00000000

 Projecting out rotations and translations

 Force Constants (Second Derivatives of the Energy) in [a.u.]
                             OX1         OY1         OZ1         HX2         HY2     
           OX1           0.4992582
           OY1          -0.3102137   0.4109471
           OZ1          -0.2198824  -0.1045236   0.4367510
           HX2          -0.2389114   0.2680509  -0.0319874   0.2589634
           HY2           0.2987091  -0.3700050   0.0791565  -0.2971705   0.3717543
           HZ2          -0.0693259   0.1163442  -0.0662990   0.0432914  -0.0838838
           HX3          -0.2441399   0.0398709   0.2499493  -0.0184959  -0.0006776
           HY3           0.0114355  -0.0412827   0.0277005   0.0286214  -0.0019025
           HZ3           0.2848493  -0.0114396  -0.3664167  -0.0111898   0.0041632
           OX4          -0.0070042   0.0008252  -0.0062731   0.0002901  -0.0008994
           OY4           0.0012433   0.0050960   0.0020198  -0.0007767  -0.0005356
           OZ4          -0.0081596   0.0007298  -0.0005082  -0.0000519  -0.0006968
           HX5          -0.0015292   0.0012466   0.0028794  -0.0014167   0.0006200
           HY5          -0.0010831  -0.0070770  -0.0033111   0.0017202   0.0008633
           HZ5           0.0060125  -0.0002736  -0.0018687  -0.0002958   0.0009736
           HX6          -0.0014101  -0.0009268  -0.0005543  -0.0000552  -0.0000190
           HY6          -0.0005267  -0.0004789  -0.0005985  -0.0000123   0.0000013
           HZ6           0.0004109  -0.0004537   0.0000245  -0.0001160  -0.0000078
           OX7          -0.0078755   0.0021242   0.0053042  -0.0003163  -0.0007272
           OY7           0.0012928   0.0049901  -0.0005687  -0.0008834  -0.0004744
           OZ7           0.0075438   0.0000594   0.0006040   0.0000886   0.0001498
           HX8           0.0028282   0.0001816   0.0003075  -0.0001531   0.0001226
           HY8           0.0003117  -0.0017084  -0.0003648   0.0004949   0.0002999
           HZ8          -0.0006583  -0.0004317  -0.0027693   0.0000312   0.0001035
           HX9          -0.0012161  -0.0011589   0.0002568   0.0000950   0.0000420
           HY9          -0.0011688  -0.0004811   0.0004898  -0.0000446  -0.0000012
           HZ9          -0.0007904  -0.0000113   0.0004823   0.0002295   0.0000418
                             HZ2         HX3         HY3         HZ3         OX4     
           HZ2           0.0564296
           HX3           0.0256912   0.2633021
           HY3          -0.0346464  -0.0386302   0.0466284
           HZ3           0.0100035  -0.2709041   0.0083035   0.3638409
           OX4          -0.0008596  -0.0012345   0.0006009   0.0021531   0.6457075
           OY4          -0.0011679   0.0004412  -0.0016729  -0.0001046  -0.0511043
           OZ4          -0.0010184   0.0028916  -0.0000655   0.0013524   0.1513282
           HX5           0.0003719   0.0035009  -0.0011756  -0.0021386  -0.5666698
           HY5           0.0025983  -0.0005925   0.0019983  -0.0002602  -0.0385244
           HZ5           0.0015708  -0.0029389  -0.0011466  -0.0058643  -0.0637352
           HX6           0.0000536   0.0000831   0.0001734   0.0001404  -0.0695517
           HY6           0.0000848  -0.0000471   0.0002827   0.0001810   0.0879491
           HZ6           0.0001699  -0.0001709   0.0004196  -0.0001445  -0.0819030
           OX7           0.0009644   0.0010448  -0.0031025  -0.0003108   0.0041064
           OY7           0.0005873   0.0000948  -0.0068584  -0.0010987  -0.0006432
           OZ7          -0.0009499  -0.0039685  -0.0008960  -0.0053153  -0.0002501
           HX8          -0.0002463  -0.0053045  -0.0006026  -0.0032210  -0.0052781
           HY8           0.0000510  -0.0017202   0.0019450   0.0002607   0.0018809
           HZ8           0.0000919  -0.0021771   0.0003379   0.0033952   0.0002258
           HX9           0.0000592   0.0012439   0.0026796   0.0006214  -0.0003657
           HY9           0.0000326   0.0012607   0.0008622  -0.0000053  -0.0000847
           HZ9           0.0000018   0.0016274  -0.0000071  -0.0008511  -0.0006862
                             OY4         OZ4         HX5         HY5         HZ5     
           OY4           0.3799547
           OZ4          -0.3210800   0.3198276
           HX5           0.0080140  -0.1002847   0.5734789
           HY5          -0.0395633   0.0201504  -0.0044165   0.0433121
           HZ5           0.0265638  -0.0451710   0.0938775  -0.0262350   0.0561382
           HX6           0.0418523  -0.0428358  -0.0044447   0.0426519  -0.0359661
           HY6          -0.3415075   0.3020970  -0.0040374  -0.0002720   0.0000643
           HZ6           0.2932685  -0.2641548   0.0024429   0.0074612  -0.0055067
           OX7          -0.0006043   0.0016704  -0.0014416   0.0000343  -0.0026636
           OY7           0.0049262   0.0005698  -0.0001316  -0.0015589  -0.0001234
           OZ7           0.0000081  -0.0113683  -0.0018941   0.0008411   0.0015780
           HX8           0.0009248  -0.0034732  -0.0013097  -0.0000200   0.0055300
           HY8          -0.0061604  -0.0021386  -0.0002220   0.0021676   0.0002337
           HZ8          -0.0009503   0.0013771   0.0047162  -0.0009472  -0.0009459
           HX9           0.0000098  -0.0010851  -0.0001681   0.0002300   0.0001795
           HY9          -0.0005370   0.0004339   0.0001025   0.0001301  -0.0000568
           HZ9           0.0014426  -0.0003363   0.0000294  -0.0002975   0.0000695
                             HX6         HY6         HZ6         OX7         OY7     
           HX6           0.0747844
           HY6          -0.0829780   0.3419788
           HZ6           0.0798719  -0.3016083   0.2702809
           OX7          -0.0003716   0.0001008   0.0004284   0.3290552
           OY7           0.0005123  -0.0006005  -0.0013799  -0.2509996   0.3305345
           OZ7           0.0011858  -0.0009742  -0.0000935   0.0579128   0.2262291
           HX8           0.0006724  -0.0005036  -0.0009600  -0.1217229   0.0075424
           HY8          -0.0012355   0.0004043   0.0020467   0.0269203  -0.0346611
           HZ8          -0.0020990   0.0010337   0.0001549  -0.1765303  -0.0455830
           HX9           0.0002935   0.0000551  -0.0000043  -0.2024786   0.2432156
           HY9          -0.0000306   0.0001920   0.0002536   0.2262539  -0.2962974
           HZ9           0.0002034  -0.0002797  -0.0007306   0.1132246  -0.1786325
                             OZ7         HX8         HY8         HZ8         HX9     
           OZ7           0.6898632
           HX8          -0.2171457   0.1191147
           HY8          -0.0074138  -0.0112170   0.0396507
           HZ8          -0.4968920   0.1880057   0.0442652   0.5148588
           HX9           0.1565274   0.0111531  -0.0152131  -0.0115142   0.1914431
           HY9          -0.2180035   0.0035717  -0.0019375   0.0021718  -0.2298601
           HZ9          -0.1774262   0.0312031  -0.0369402  -0.0192707  -0.1450408
                             HY9         HZ9     
           HY9           0.2980699
           HZ9           0.2146838   0.1980615


 Atomic Masses
     1-   9   15.994910    1.007825    1.007825   15.994910    1.007825    1.007825   15.994910    1.007825    1.007825

 Mass weighted Second Derivative Matrix
                             OX1         OY1         OZ1         HX2         HY2     
           OX1           0.0312136
           OY1          -0.0193945   0.0256924
           OZ1          -0.0137470  -0.0065348   0.0273056
           HX2          -0.0595050   0.0667627  -0.0079670   0.2569528
           HY2           0.0743986  -0.0921561   0.0197153  -0.2948632   0.3688679
           HZ2          -0.0172668   0.0289775  -0.0165129   0.0429553  -0.0832325
           HX3          -0.0608072   0.0099305   0.0622542  -0.0183523  -0.0006723
           HY3           0.0028482  -0.0102822   0.0068993   0.0283992  -0.0018877
           HZ3           0.0709466  -0.0028492  -0.0912624  -0.0111029   0.0041309
           OX4          -0.0004379   0.0000516  -0.0003922   0.0000723  -0.0002240
           OY4           0.0000777   0.0003186   0.0001263  -0.0001935  -0.0001334
           OZ4          -0.0005101   0.0000456  -0.0000318  -0.0000129  -0.0001735
           HX5          -0.0003809   0.0003105   0.0007172  -0.0014057   0.0006152
           HY5          -0.0002698  -0.0017627  -0.0008247   0.0017069   0.0008566
           HZ5           0.0014975  -0.0000681  -0.0004654  -0.0002935   0.0009660
           HX6          -0.0003512  -0.0002308  -0.0001381  -0.0000548  -0.0000189
           HY6          -0.0001312  -0.0001193  -0.0001491  -0.0000122   0.0000013
           HZ6           0.0001023  -0.0001130   0.0000061  -0.0001151  -0.0000077
           OX7          -0.0004924   0.0001328   0.0003316  -0.0000788  -0.0001811
           OY7           0.0000808   0.0003120  -0.0000356  -0.0002200  -0.0001182
           OZ7           0.0004716   0.0000037   0.0000378   0.0000221   0.0000373
           HX8           0.0007044   0.0000452   0.0000766  -0.0001519   0.0001217
           HY8           0.0000776  -0.0004255  -0.0000908   0.0004911   0.0002976
           HZ8          -0.0001640  -0.0001075  -0.0006897   0.0000310   0.0001027
           HX9          -0.0003029  -0.0002886   0.0000640   0.0000942   0.0000417
           HY9          -0.0002911  -0.0001198   0.0001220  -0.0000443  -0.0000012
           HZ9          -0.0001969  -0.0000028   0.0001201   0.0002277   0.0000415
                             HZ2         HX3         HY3         HZ3         OX4     
           HZ2           0.0559915
           HX3           0.0254917   0.2612578
           HY3          -0.0343774  -0.0383303   0.0462664
           HZ3           0.0099258  -0.2688007   0.0082391   0.3610160
           OX4          -0.0002141  -0.0003075   0.0001497   0.0005363   0.0403696
           OY4          -0.0002909   0.0001099  -0.0004167  -0.0000261  -0.0031950
           OZ4          -0.0002537   0.0007202  -0.0000163   0.0003368   0.0094610
           HX5           0.0003690   0.0034737  -0.0011665  -0.0021220  -0.1411388
           HY5           0.0025781  -0.0005879   0.0019828  -0.0002582  -0.0095952
           HZ5           0.0015586  -0.0029161  -0.0011377  -0.0058188  -0.0158743
           HX6           0.0000532   0.0000824   0.0001720   0.0001394  -0.0173231
           HY6           0.0000841  -0.0000468   0.0002805   0.0001796   0.0219052
           HZ6           0.0001685  -0.0001696   0.0004164  -0.0001434  -0.0203993
           OX7           0.0002402   0.0002602  -0.0007727  -0.0000774   0.0002567
           OY7           0.0001463   0.0000236  -0.0017082  -0.0002737  -0.0000402
           OZ7          -0.0002366  -0.0009884  -0.0002232  -0.0013239  -0.0000156
           HX8          -0.0002444  -0.0052633  -0.0005979  -0.0031960  -0.0013146
           HY8           0.0000506  -0.0017068   0.0019299   0.0002587   0.0004685
           HZ8           0.0000912  -0.0021602   0.0003353   0.0033689   0.0000562
           HX9           0.0000588   0.0012342   0.0026588   0.0006166  -0.0000911
           HY9           0.0000323   0.0012509   0.0008555  -0.0000053  -0.0000211
           HZ9           0.0000018   0.0016147  -0.0000070  -0.0008445  -0.0001709
                             OY4         OZ4         HX5         HY5         HZ5     
           OY4           0.0237547
           OZ4          -0.0200739   0.0199956
           HX5           0.0019960  -0.0249776   0.5690263
           HY5          -0.0098539   0.0050188  -0.0043822   0.0429758
           HZ5           0.0066162  -0.0112506   0.0931486  -0.0260314   0.0557024
           HX6           0.0104240  -0.0106690  -0.0044102   0.0423208  -0.0356868
           HY6          -0.0850583   0.0752424  -0.0040060  -0.0002699   0.0000638
           HZ6           0.0730436  -0.0657923   0.0024240   0.0074033  -0.0054639
           OX7          -0.0000378   0.0001044  -0.0003590   0.0000085  -0.0006634
           OY7           0.0003080   0.0000356  -0.0000328  -0.0003883  -0.0000307
           OZ7           0.0000005  -0.0007107  -0.0004718   0.0002095   0.0003930
           HX8           0.0002303  -0.0008651  -0.0012995  -0.0000198   0.0054871
           HY8          -0.0015344  -0.0005326  -0.0002203   0.0021508   0.0002319
           HZ8          -0.0002367   0.0003430   0.0046796  -0.0009398  -0.0009386
           HX9           0.0000024  -0.0002703  -0.0001668   0.0002282   0.0001781
           HY9          -0.0001338   0.0001081   0.0001017   0.0001290  -0.0000563
           HZ9           0.0003593  -0.0000838   0.0000292  -0.0002952   0.0000690
                             HX6         HY6         HZ6         OX7         OY7     
           HX6           0.0742037
           HY6          -0.0823337   0.3393235
           HZ6           0.0792518  -0.2992666   0.2681824
           OX7          -0.0000926   0.0000251   0.0001067   0.0205725
           OY7           0.0001276  -0.0001496  -0.0003437  -0.0156925   0.0206650
           OZ7           0.0002953  -0.0002427  -0.0000233   0.0036207   0.0141438
           HX8           0.0006671  -0.0004997  -0.0009525  -0.0303172   0.0018786
           HY8          -0.0012259   0.0004012   0.0020308   0.0067050  -0.0086329
           HZ8          -0.0020827   0.0010257   0.0001537  -0.0439679  -0.0113532
           HX9           0.0002912   0.0000546  -0.0000043  -0.0504308   0.0605770
           HY9          -0.0000304   0.0001905   0.0002517   0.0563524  -0.0737980
           HZ9           0.0002018  -0.0002775  -0.0007250   0.0282005  -0.0444915
                             OZ7         HX8         HY8         HZ8         HX9     
           OZ7           0.0431302
           HX8          -0.0540839   0.1181898
           HY8          -0.0018465  -0.0111299   0.0393428
           HZ8          -0.1237595   0.1865459   0.0439216   0.5108613
           HX9           0.0389858   0.0110665  -0.0150950  -0.0114248   0.1899567
           HY9          -0.0542975   0.0035440  -0.0019224   0.0021549  -0.2280754
           HZ9          -0.0441911   0.0309609  -0.0366534  -0.0191211  -0.1439146
                             HY9         HZ9     
           HY9           0.2957556
           HZ9           0.2130169   0.1965237


 Mass Weighted 2nd Derivative Matrix Eigenvalues
     1-  10    0.000000    0.000000    0.000000    0.000000    0.000000    0.000000    0.000814    0.001003    0.001187    0.001210
    11-  20    0.001645    0.002145    0.003842    0.004090    0.007197    0.011073    0.015628    0.026945    0.118525    0.119457
    21-  27    0.121440    0.609902    0.622002    0.622979    0.669722    0.670741    0.671549

 Mass Weighted 2nd Derivative Matrix Eigenvectors
              1             2             3             4             5             6             7             8
    1    0.00000000    0.00000000    0.00000000    0.00000000    0.00000000    0.54473991    0.02740183   -0.40053759
    2    0.12946745    0.89674069   -0.01945593    0.09108948   -0.18113751   -0.03650500    0.04080732   -0.05414642
    3    0.09075912   -0.14812562    0.13807386    0.63248674   -0.36684240    0.00400632   -0.11908885   -0.11554374
    4   -0.02479646    0.06657342    0.00574662   -0.01717148   -0.04037797    0.13263065    0.11823830    0.24838175
    5    0.00023850    0.27903844   -0.00821912    0.02467304   -0.07202681   -0.01234408    0.06732867    0.28805529
    6   -0.03083610   -0.03262432    0.00095273    0.22467090   -0.06857020    0.00135473   -0.16520011    0.06999204
    7   -0.00645319    0.00765771    0.03410866   -0.03972258    0.02628359    0.13648823   -0.01342531   -0.03638419
    8   -0.00839606    0.18483487   -0.01008126    0.06404147    0.03567042   -0.00582616   -0.21903263   -0.09570484
    9    0.01940551   -0.02893182    0.06308393    0.12398214   -0.07424855    0.00063940   -0.03442104    0.02728163
   10    0.04497306   -0.04516363   -0.26538236    0.30674730   -0.21439448    0.54578938    0.14489777    0.18657148
   11    0.91244692   -0.08488294    0.06441978   -0.07004882    0.11726979    0.01847290    0.08015387   -0.04827380
   12   -0.04778722    0.00591062    0.59671025    0.10726048   -0.01392142   -0.00202735    0.16496453   -0.39344101
   13    0.00970843   -0.00918935   -0.05917846    0.06826101   -0.04841374    0.13691762    0.04755663    0.03232624
   14    0.18617228    0.06426563    0.01186240   -0.02015404   -0.02053727   -0.00053204    0.15439643   -0.19617196
   15   -0.00213047   -0.01230801    0.10629494    0.07812789   -0.03442293    0.00005839   -0.03104729   -0.01076720
   16    0.03970752   -0.08175459   -0.09303750    0.11812061   -0.02991817    0.14121186   -0.08736011    0.20793857
   17    0.28463204   -0.04691507    0.02251916   -0.04480474    0.00403335    0.00554992   -0.25441608    0.33049716
   18    0.04339435   -0.00856607    0.16411261   -0.01504456   -0.03875471   -0.00060909   -0.23486862    0.24478866
   19   -0.07285080    0.12066802    0.26962218   -0.32365185    0.16649357    0.53901636   -0.28532765    0.06561020
   20   -0.03617595    0.13105011   -0.04588561    0.47355924    0.78431881    0.01788803   -0.17755816    0.00064943
   21   -0.04370376    0.00370165    0.59213483    0.11134405   -0.01953592   -0.00196316    0.13977090    0.40646245
   22   -0.01065792    0.02143910    0.02667483   -0.03354526    0.00995107    0.13558056   -0.01138744    0.03961116
   23    0.07442040   -0.01425943   -0.00205972    0.08109529    0.16790569    0.00645097   -0.07239857   -0.07230311
   24   -0.01842116    0.00697131    0.16470064    0.01066324    0.00947185   -0.00070797    0.01172178    0.09594828
   25   -0.00244202   -0.02024214    0.09096746   -0.09941232    0.09800805    0.13860354    0.39665994    0.09914789
   26   -0.03080948   -0.00341565   -0.01441278    0.14608933    0.25575414    0.00727532    0.54959363    0.15106272
   27    0.03707232   -0.00330049    0.17827652   -0.03039038   -0.02627181   -0.00079845   -0.28576494   -0.01881429
              9            10            11            12            13            14            15            16
    1   -0.25586908   -0.22213176    0.58784027   -0.08171956   -0.02473808   -0.09508169   -0.04059797   -0.05857953
    2    0.04530152    0.01387608    0.04467807    0.09502702   -0.13651353   -0.13369962    0.03495336    0.04598367
    3    0.38587576   -0.35743394    0.01131522    0.06159329   -0.10602656    0.07936067    0.03302973    0.03903667
    4   -0.23218870   -0.29735017   -0.02857423   -0.41796614   -0.03505349    0.32911000    0.00166709   -0.07601011
    5   -0.14618813   -0.21193141   -0.14114217   -0.35167252    0.07678932    0.19347843   -0.04755324   -0.06089460
    6   -0.00520582   -0.18479547   -0.04507610   -0.23193782    0.54569253   -0.21927226   -0.27062810   -0.08696636
    7   -0.10762317    0.00281160    0.13349269   -0.01134534   -0.10404183    0.16449629    0.29203616    0.13547242
    8   -0.01245741    0.13521371    0.06438056    0.07262286    0.41631569   -0.29248887    0.05302495    0.08364197
    9    0.06233928   -0.04756668   -0.01319906    0.02103004   -0.12971557    0.18481360    0.25283773    0.12698324
   10   -0.13081421    0.45942772   -0.24718812    0.12872954    0.00128230    0.05006781   -0.17918262   -0.02767388
   11    0.02908211    0.03003164   -0.03971393   -0.14713849    0.15811237   -0.01354473    0.09499009    0.00091833
   12   -0.42882516    0.02271162   -0.44951695    0.01170702    0.06289782   -0.05256328    0.01211215    0.02502454
   13   -0.04088000    0.10807444   -0.06589003    0.02937944    0.04012889    0.02795873   -0.10184907    0.05519509
   14    0.15593788    0.12941161    0.02924041    0.17475201   -0.00184329    0.40590953   -0.22149387   -0.26793013
   15   -0.06393492    0.04560713   -0.09918812    0.02363278   -0.22878926   -0.10793006    0.35854061   -0.36111897
   16   -0.09023170    0.07070465   -0.09079513   -0.18583902   -0.13270607   -0.40599573    0.45383899   -0.04870298
   17   -0.22566087   -0.19823516    0.07823514    0.31086755   -0.10901676   -0.08841426   -0.07074152   -0.00695204
   18   -0.35524330   -0.21412603   -0.00606356    0.45483051   -0.11533995    0.00508794   -0.23929436    0.00823544
   19    0.44309672   -0.14557254   -0.29118940    0.06959605    0.08631211    0.05874445    0.07139167   -0.07290028
   20   -0.03573402    0.03512240   -0.00260054    0.01354789   -0.04135101    0.17025035    0.00581304   -0.12703109
   21    0.10088485    0.36182835    0.44397579   -0.05768559    0.11046789    0.04645707    0.01800852    0.09919737
   22    0.01117591   -0.02994122   -0.04693139    0.10205629    0.18257208    0.19745565    0.17289747    0.58552076
   23    0.01558840    0.04690150   -0.07548794   -0.25667646   -0.36818530   -0.13360471   -0.29013758    0.52615366
   24    0.06469550    0.08654512    0.10645468   -0.03599280   -0.01984920   -0.05367169   -0.04209059   -0.25540691
   25    0.23500738   -0.21970769   -0.09835196    0.01917879   -0.20130707   -0.36772489   -0.22743774   -0.01743751
   26    0.05880752   -0.21620103    0.03535788    0.20373643    0.06462919   -0.17653161    0.03607353    0.04520000
   27    0.06654557    0.20635075    0.03406943   -0.29376878   -0.32026473   -0.10085918   -0.31094429   -0.08211719
             17            18            19            20            21            22            23            24
    1   -0.06666407    0.10050088   -0.00609386    0.00702394    0.01424779    0.06552182   -0.06059169    0.05686635
    2   -0.13580935    0.02756212    0.00787367   -0.15481548   -0.04818198    0.02188379   -0.01923037    0.02645665
    3   -0.08973032   -0.04975338   -0.02074129    0.19279458    0.06959320   -0.11091790    0.10366911   -0.10772792
    4    0.07346618   -0.03677566   -0.02563235    0.28455269    0.10124277    0.10150117   -0.09634794    0.11845821
    5    0.08737904   -0.00025471   -0.00624292    0.09863465    0.03122220   -0.11788111    0.10967623   -0.13766801
    6    0.18962393    0.17816957    0.05579985   -0.51138865   -0.19282384    0.01795162   -0.01470342    0.02165152
    7    0.38043538   -0.39315192    0.04008911   -0.31410948   -0.14336596   -0.35604724    0.33576852   -0.34719263
    8    0.47484180   -0.24656895   -0.04349804    0.53163443    0.18065337    0.03152032   -0.03256747    0.03287618
    9    0.27599871   -0.33810561    0.03522166   -0.27108131   -0.11862136    0.42677057   -0.40029292    0.40937612
   10    0.00482299   -0.07274587   -0.13462926   -0.04912045    0.08384687   -0.13481004   -0.16338646   -0.02511806
   11   -0.08605736   -0.07107304   -0.11930935   -0.05191630    0.09811177   -0.02576813   -0.03740332   -0.00280966
   12   -0.09531919   -0.06748448    0.09095551    0.03285877   -0.07150039   -0.00132268    0.00434816   -0.00240418
   13   -0.06592917   -0.09862444    0.04672954    0.02027815   -0.04234568    0.57517581    0.71120964    0.10662252
   14    0.39303438    0.28985504    0.41835270    0.16871709   -0.31200787   -0.00948889   -0.01487562   -0.00219971
   15    0.39044294    0.48535362   -0.34850864   -0.12992011    0.29345448    0.10059126    0.12975575    0.01794932
   16   -0.09265724    0.13518907    0.48963359    0.17777384   -0.33880959   -0.03920149   -0.05770791   -0.00720837
   17    0.03042261    0.03061124    0.09078036    0.03929210   -0.07481313    0.11284930    0.16305346    0.01245224
   18    0.06084136   -0.00732234   -0.02352521   -0.00033386   -0.00202014   -0.10279766   -0.14742782   -0.01039199
   19   -0.06917178    0.01105600   -0.13161103    0.04038087   -0.15235753    0.06035348   -0.03754536   -0.09645331
   20   -0.10677361   -0.02967617    0.08976044   -0.04070674    0.10032262   -0.01515422    0.01345815    0.02632427
   21   -0.05274836    0.10536511   -0.05448370    0.02292719   -0.05164136    0.09463433   -0.04840718   -0.14243605
   22    0.01991189    0.37745747    0.30605820   -0.09123843    0.38127930   -0.17815322    0.09622751    0.27222520
   23    0.23663426    0.22311927   -0.32062510    0.12501018   -0.36347759   -0.03264779    0.01701595    0.05327299
   24   -0.04217646   -0.14309401   -0.11407866    0.03360716   -0.14659708   -0.44683879    0.25048966    0.69776097
   25    0.20670298   -0.13871011    0.22804874   -0.07042198    0.25817197   -0.06768079    0.05270944    0.11486740
   26    0.08692764   -0.00519867   -0.05241698    0.02245899   -0.06015364    0.09149416   -0.07029947   -0.15780959
   27    0.07261045   -0.12770250    0.33242367   -0.11118026    0.37993505    0.07446288   -0.05529637   -0.13016308
             25            26            27
    1    0.18469759   -0.01130454   -0.00509403
    2   -0.17676452    0.01373450    0.00458534
    3   -0.01488240   -0.00365164    0.00023765
    4   -0.57608836    0.04712550    0.01494546
    5    0.70892795   -0.05712602   -0.01827922
    6   -0.15256800    0.01146352    0.00400864
    7   -0.15833105   -0.00333240    0.00391561
    8   -0.00381620    0.00216560   -0.00068960
    9    0.21193827    0.00250696   -0.00509346
   10    0.00731209    0.10970637    0.00695611
   11   -0.01284830   -0.16593702   -0.01909217
   12    0.01178874    0.15880525    0.01777045
   13   -0.01537181   -0.25720161   -0.00546948
   14   -0.00195931   -0.01406838   -0.00257392
   15   -0.00126487   -0.03023265    0.00076725
   16   -0.01412834   -0.17920461   -0.02209254
   17    0.05249416    0.67594153    0.07847702
   18   -0.04649849   -0.60077041   -0.06980447
   19   -0.00160703   -0.00989531    0.09332402
   20   -0.00213579    0.01754082   -0.15845370
   21   -0.00737098    0.01969563   -0.17827554
   22    0.01077162   -0.01331769    0.11437850
   23    0.00206140   -0.00103508    0.00124947
   24    0.02659314   -0.02871288    0.24424366
   25   -0.00537952    0.05333787   -0.48488064
   26    0.00618151   -0.06941137    0.63085768
   27    0.00348905   -0.05082021    0.46435301

   Low Vibration      Wavenumber
        Nr             [1/cm] 
        1                0.00
        2                0.00
        3                0.00
        4                0.00
        5                0.00
        6                0.00

     Vibration        Wavenumber
        Nr             [1/cm] 
        1              146.64
        2              162.80
        3              177.08
        4              178.84
        5              208.50
        6              238.09
        7              318.61
        8              328.74
        9              436.09
       10              540.92
       11              642.62
       12              843.81
       13             1769.74
       14             1776.68
       15             1791.37
       16             4014.53
       17             4054.15
       18             4057.34
       19             4206.80
       20             4209.99
       21             4212.53

 FREQUENCIES * CALCULATION OF NORMAL MODES FOR HF-SCF


 Atomic Coordinates

  Nr  Atom  Charge       X              Y              Z

   1   O     8.00    3.133360283    0.109764106   -0.023813760
   2   H     1.00    4.220996482   -1.259675911    0.297131989
   3   H     1.00    1.992225377    0.175781867    1.357557880
   4   O     8.00   -1.585597868   -0.095701502   -2.716785180
   5   H     1.00    0.181929068   -0.091411993   -2.414955520
   6   H     1.00   -1.897768732    1.216855568   -3.873998418
   7   O     8.00   -1.535396553   -0.078457973    2.737546127
   8   H     1.00   -2.205877351   -0.165339251    1.077371131
   9   H     1.00   -2.487759977    1.145790700    3.605343289

 Gradient norm at reference geometry: 0.18721D-03

 Normal Modes

                              1 A         2 A         3 A         4 A         5 A  
 Wavenumbers [cm-1]          146.64      162.80      177.08      178.84      208.50
 Intensities [km/mol]          0.00        0.00        0.00        0.00        0.00
 Intensities [relative]        0.00        0.00        0.00        0.00        0.00
           OX1              0.00685    -0.10015    -0.06398    -0.05554     0.14698
           OY1              0.01020    -0.01354     0.01133     0.00347     0.01117
           OZ1             -0.02978    -0.02889     0.09648    -0.08937     0.00283
           HX2              0.11778     0.24742    -0.23129    -0.29619    -0.02846
           HY2              0.06707     0.28693    -0.14562    -0.21111    -0.14059
           HZ2             -0.16456     0.06972    -0.00519    -0.18408    -0.04490
           HX3             -0.01337    -0.03624    -0.10720     0.00280     0.13297
           HY3             -0.21818    -0.09533    -0.01241     0.13469     0.06413
           HZ3             -0.03429     0.02718     0.06210    -0.04738    -0.01315
           OX4              0.03623     0.04665    -0.03271     0.11488    -0.06181
           OY4              0.02004    -0.01207     0.00727     0.00751    -0.00993
           OZ4              0.04125    -0.09838    -0.10722     0.00568    -0.11240
           HX5              0.04737     0.03220    -0.04072     0.10765    -0.06563
           HY5              0.15380    -0.19541     0.15533     0.12891     0.02913
           HZ5             -0.03093    -0.01073    -0.06369     0.04543    -0.09880
           HX6             -0.08702     0.20713    -0.08988     0.07043    -0.09044
           HY6             -0.25343     0.32921    -0.22478    -0.19746     0.07793
           HZ6             -0.23396     0.24384    -0.35386    -0.21329    -0.00604
           OX7             -0.07134     0.01641     0.11079    -0.03640    -0.07281
           OY7             -0.04440     0.00016    -0.00893     0.00878    -0.00065
           OZ7              0.03495     0.10163     0.02523     0.09047     0.11101
           HX8             -0.01134     0.03946     0.01113    -0.02982    -0.04675
           HY8             -0.07212    -0.07202     0.01553     0.04672    -0.07519
           HZ8              0.01168     0.09558     0.06444     0.08621     0.10604
           HX9              0.39512     0.09876     0.23409    -0.21885    -0.09797
           HY9              0.54746     0.15048     0.05858    -0.21536     0.03522
           HZ9             -0.28465    -0.01874     0.06629     0.20555     0.03394

                              6 A         7 A         8 A         9 A        10 A  
 Wavenumbers [cm-1]          238.09      318.61      328.74      436.09      540.92
 Intensities [km/mol]          0.00        0.00        0.00        0.00        0.00
 Intensities [relative]        0.00        0.00        0.00        0.00        0.00
           OX1             -0.02043    -0.00619    -0.02377    -0.01015    -0.01465
           OY1              0.02376    -0.03413    -0.03343     0.00874     0.01150
           OZ1              0.01540    -0.02651     0.01984     0.00826     0.00976
           HX2             -0.41634    -0.03492     0.32783     0.00166    -0.07571
           HY2             -0.35030     0.07649     0.19273    -0.04737    -0.06066
           HZ2             -0.23104     0.54357    -0.21842    -0.26958    -0.08663
           HX3             -0.01130    -0.10364     0.16386     0.29090     0.13495
           HY3              0.07234     0.41470    -0.29135     0.05282     0.08332
           HZ3              0.02095    -0.12921     0.18409     0.25185     0.12649
           OX4              0.03219     0.00032     0.01252    -0.04480    -0.00692
           OY4             -0.03679     0.03953    -0.00339     0.02375     0.00023
           OZ4              0.00293     0.01573    -0.01314     0.00303     0.00626
           HX5              0.02927     0.03997     0.02785    -0.10145     0.05498
           HY5              0.17407    -0.00184     0.40433    -0.22063    -0.26689
           HZ5              0.02354    -0.22790    -0.10751     0.35715    -0.35971
           HX6             -0.18512    -0.13219    -0.40442     0.45207    -0.04851
           HY6              0.30966    -0.10859    -0.08807    -0.07047    -0.00692
           HZ6              0.45306    -0.11489     0.00507    -0.23836     0.00820
           OX7              0.01740     0.02158     0.01469     0.01785    -0.01823
           OY7              0.00339    -0.01034     0.04257     0.00145    -0.03176
           OZ7             -0.01442     0.02762     0.01162     0.00450     0.02480
           HX8              0.10166     0.18186     0.19669     0.17222     0.58324
           HY8             -0.25568    -0.36675    -0.13309    -0.28901     0.52411
           HZ8             -0.03585    -0.01977    -0.05346    -0.04193    -0.25441
           HX9              0.01910    -0.20052    -0.36629    -0.22655    -0.01737
           HY9              0.20294     0.06438    -0.17584     0.03593     0.04502
           HZ9             -0.29263    -0.31902    -0.10047    -0.30973    -0.08180

                             11 A        12 A        13 A        14 A        15 A  
 Wavenumbers [cm-1]          642.62      843.81     1769.74     1776.68     1791.37
 Intensities [km/mol]          0.00        0.00        0.00        0.00        0.00
 Intensities [relative]        0.00        0.00        0.00        0.00        0.00
           OX1             -0.01667     0.02513    -0.00152     0.00176     0.00356
           OY1             -0.03396     0.00689     0.00197    -0.03871    -0.01205
           OZ1             -0.02244    -0.01244    -0.00519     0.04821     0.01740
           HX2              0.07318    -0.03663    -0.02553     0.28345     0.10085
           HY2              0.08704    -0.00025    -0.00622     0.09825     0.03110
           HZ2              0.18889     0.17748     0.05558    -0.50940    -0.19207
           HX3              0.37896    -0.39162     0.03993    -0.31289    -0.14281
           HY3              0.47299    -0.24561    -0.04333     0.52957     0.17995
           HZ3              0.27493    -0.33679     0.03508    -0.27003    -0.11816
           OX4              0.00121    -0.01819    -0.03366    -0.01228     0.02097
           OY4             -0.02152    -0.01777    -0.02983    -0.01298     0.02453
           OZ4             -0.02383    -0.01687     0.02274     0.00822    -0.01788
           HX5             -0.06567    -0.09824     0.04655     0.02020    -0.04218
           HY5              0.39151     0.28873     0.41673     0.16806    -0.31079
           HZ5              0.38892     0.48347    -0.34715    -0.12941     0.29231
           HX6             -0.09230     0.13466     0.48773     0.17708    -0.33749
           HY6              0.03030     0.03049     0.09043     0.03914    -0.07452
           HZ6              0.06060    -0.00729    -0.02343    -0.00033    -0.00201
           OX7             -0.01730     0.00276    -0.03291     0.01010    -0.03810
           OY7             -0.02670    -0.00742     0.02244    -0.01018     0.02508
           OZ7             -0.01319     0.02635    -0.01362     0.00573    -0.01291
           HX8              0.01983     0.37599     0.30487    -0.09088     0.37980
           HY8              0.23571     0.22225    -0.31938     0.12452    -0.36206
           HZ8             -0.04201    -0.14254    -0.11363     0.03348    -0.14603
           HX9              0.20590    -0.13817     0.22716    -0.07015     0.25717
           HY9              0.08659    -0.00518    -0.05221     0.02237    -0.05992
           HZ9              0.07233    -0.12721     0.33113    -0.11075     0.37846

                             16 A        17 A        18 A        19 A        20 A  
 Wavenumbers [cm-1]         4014.53     4054.15     4057.34     4206.80     4209.99
 Intensities [km/mol]          0.00        0.00        0.00        0.00        0.00
 Intensities [relative]        0.00        0.00        0.00        0.00        0.00
           OX1              0.01638    -0.01515     0.01422     0.04618    -0.00283
           OY1              0.00547    -0.00481     0.00662    -0.04420     0.00343
           OZ1             -0.02773     0.02592    -0.02694    -0.00372    -0.00091
           HX2              0.10111    -0.09597     0.11800    -0.57385     0.04694
           HY2             -0.11742     0.10925    -0.13713     0.70617    -0.05690
           HZ2              0.01788    -0.01465     0.02157    -0.15197     0.01142
           HX3             -0.35466     0.33446    -0.34584    -0.15772    -0.00332
           HY3              0.03140    -0.03244     0.03275    -0.00380     0.00216
           HZ3              0.42511    -0.39874     0.40778     0.21111     0.00250
           OX4             -0.03371    -0.04085    -0.00628     0.00183     0.02743
           OY4             -0.00644    -0.00935    -0.00070    -0.00321    -0.04149
           OZ4             -0.00033     0.00109    -0.00060     0.00295     0.03971
           HX5              0.57294     0.70844     0.10621    -0.01531    -0.25620
           HY5             -0.00945    -0.01482    -0.00219    -0.00195    -0.01401
           HZ5              0.10020     0.12925     0.01788    -0.00126    -0.03012
           HX6             -0.03905    -0.05748    -0.00718    -0.01407    -0.17851
           HY6              0.11241     0.16242     0.01240     0.05229     0.67331
           HZ6             -0.10240    -0.14685    -0.01035    -0.04632    -0.59843
           OX7              0.01509    -0.00939    -0.02412    -0.00040    -0.00247
           OY7             -0.00379     0.00337     0.00658    -0.00053     0.00439
           OZ7              0.02366    -0.01210    -0.03561    -0.00184     0.00492
           HX8             -0.17746     0.09585     0.27117     0.01073    -0.01327
           HY8             -0.03252     0.01695     0.05307     0.00205    -0.00103
           HZ8             -0.44510     0.24952     0.69505     0.02649    -0.02860
           HX9             -0.06742     0.05250     0.11442    -0.00536     0.05313
           HY9              0.09114    -0.07003    -0.15720     0.00616    -0.06914
           HZ9              0.07417    -0.05508    -0.12966     0.00348    -0.05062

                             21 A  
 Wavenumbers [cm-1]         4212.53
 Intensities [km/mol]          0.00
 Intensities [relative]        0.00
           OX1             -0.00127
           OY1              0.00115
           OZ1              0.00006
           HX2              0.01489
           HY2             -0.01821
           HZ2              0.00399
           HX3              0.00390
           HY3             -0.00069
           HZ3             -0.00507
           OX4              0.00174
           OY4             -0.00477
           OZ4              0.00444
           HX5             -0.00545
           HY5             -0.00256
           HZ5              0.00076
           HX6             -0.02201
           HY6              0.07817
           HZ6             -0.06953
           OX7              0.02333
           OY7             -0.03962
           OZ7             -0.04458
           HX8              0.11393
           HY8              0.00124
           HZ8              0.24329
           HX9             -0.48299
           HY9              0.62840
           HZ9              0.46255


 Normal Modes of low/zero frequencies

                                  1           2           3           4           5
 Wavenumbers [cm-1]            0.00        0.00        0.00        0.00        0.00
 Intensities [km/mol]          0.00        0.00        0.00        0.00        0.00
 Intensities [relative]        0.00        0.00        0.00        0.00        0.00
           OX1             -0.00000     0.00000     0.00000    -0.00000     0.00000
           OY1              0.03237     0.22422    -0.00486     0.02278    -0.04529
           OZ1              0.02269    -0.03704     0.03452     0.15815    -0.09173
           HX2             -0.02470     0.06631     0.00572    -0.01710    -0.04022
           HY2              0.00024     0.27795    -0.00819     0.02458    -0.07175
           HZ2             -0.03072    -0.03250     0.00095     0.22380    -0.06830
           HX3             -0.00643     0.00763     0.03398    -0.03957     0.02618
           HY3             -0.00836     0.18412    -0.01004     0.06379     0.03553
           HZ3              0.01933    -0.02882     0.06284     0.12350    -0.07396
           OX4              0.01125    -0.01129    -0.06636     0.07670    -0.05361
           OY4              0.22815    -0.02122     0.01611    -0.01751     0.02932
           OZ4             -0.01195     0.00148     0.14920     0.02682    -0.00348
           HX5              0.00967    -0.00915    -0.05895     0.06800    -0.04823
           HY5              0.18545     0.06402     0.01182    -0.02008    -0.02046
           HZ5             -0.00212    -0.01226     0.10588     0.07782    -0.03429
           HX6              0.03955    -0.08144    -0.09268     0.11766    -0.02980
           HY6              0.28352    -0.04673     0.02243    -0.04463     0.00402
           HZ6              0.04323    -0.00853     0.16347    -0.01499    -0.03860
           OX7             -0.01822     0.03017     0.06742    -0.08093     0.04163
           OY7             -0.00905     0.03277    -0.01147     0.11841     0.19611
           OZ7             -0.01093     0.00093     0.14806     0.02784    -0.00488
           HX8             -0.01062     0.02136     0.02657    -0.03341     0.00991
           HY8              0.07413    -0.01420    -0.00205     0.08078     0.16725
           HZ8             -0.01835     0.00694     0.16406     0.01062     0.00944
           HX9             -0.00243    -0.02016     0.09061    -0.09903     0.09763
           HY9             -0.03069    -0.00340    -0.01436     0.14552     0.25476
           HZ9              0.03693    -0.00329     0.17758    -0.03027    -0.02617

                                  6
 Wavenumbers [cm-1]            0.00
 Intensities [km/mol]          0.00
 Intensities [relative]        0.00
           OX1              0.13621
           OY1             -0.00913
           OZ1              0.00100
           HX2              0.13211
           HY2             -0.01230
           HZ2              0.00135
           HX3              0.13596
           HY3             -0.00580
           HZ3              0.00064
           OX4              0.13647
           OY4              0.00462
           OZ4             -0.00051
           HX5              0.13639
           HY5             -0.00053
           HZ5              0.00006
           HX6              0.14066
           HY6              0.00553
           HZ6             -0.00061
           OX7              0.13478
           OY7              0.00447
           OZ7             -0.00049
           HX8              0.13505
           HY8              0.00643
           HZ8             -0.00071
           HX9              0.13806
           HY9              0.00725
           HZ9             -0.00080


 Frequencies dumped to record   5400.2
 Frequency information read from record  5400.2

 Zero point energy:  0.07817732 [H]    17157.94 [1/CM]      205.25 [KJ/MOL]


 **********************************************************************************************************************************
 DATASETS  * FILE   NREC   LENGTH (MB)   RECORD NAMES
              1      18       29.03       500      610      700      900      950      970     1000      129      960     1100   
                                          VAR    BASINP    GEOM    SYMINP    ZMAT    AOBASIS   BASIS     P2S    ABASIS      S 
                                         1400     1410     1200     1210     1080     1600     1650     1700   
                                           T        V       H0       H01     AOSYM     SMH    MOLCAS    OPER   

              2       7        0.77       700     1000      520     2100     5300     5450     5400   
                                         GEOM     BASIS   MCVARS     RHF     HESS     NMOD     FREQ   

              4       5        3.38      4100     4000     4200     4300     4400   

 PROGRAMS   *        TOTAL      FREQ      OPTG    HF-SCF       INT
 CPU TIMES  *        23.76      8.06     14.77      0.20      0.48
 REAL TIME  *        25.64 SEC
 DISK USED  *        30.31 MB (local),      274.63 MB (total)
 SF USED    *         3.38 MB
 GA USED    *         0.00 MB       (max)       0.00 MB       (current)
 **********************************************************************************************************************************

 Dump information in style MOLDEN to molden.input                                                                    

 Molecular orbitals read from record     2100.2  Type=RHF/CANONICAL  
 Occupation numbers read from record     2100.2  Type=RHF/RHF  
 Orbital energies read from record       2100.2  Type=RHF/CANONICAL  
 Redundancy group numbers read from rec  2100.2  Type=RHF/RHF  

 DUMP ORBITAL  1.1 AS ORBITAL    1  occ=    2.0000  eig=  -20.5437  GROUP=   2
 DUMP ORBITAL  2.1 AS ORBITAL    2  occ=    2.0000  eig=  -20.5421  GROUP=   2
 DUMP ORBITAL  3.1 AS ORBITAL    3  occ=    2.0000  eig=  -20.5413  GROUP=   2
 DUMP ORBITAL  4.1 AS ORBITAL    4  occ=    2.0000  eig=   -1.3590  GROUP=   2
 DUMP ORBITAL  5.1 AS ORBITAL    5  occ=    2.0000  eig=   -1.3450  GROUP=   2
 DUMP ORBITAL  6.1 AS ORBITAL    6  occ=    2.0000  eig=   -1.3436  GROUP=   2
 DUMP ORBITAL  7.1 AS ORBITAL    7  occ=    2.0000  eig=   -0.7389  GROUP=   2
 DUMP ORBITAL  8.1 AS ORBITAL    8  occ=    2.0000  eig=   -0.7134  GROUP=   2
 DUMP ORBITAL  9.1 AS ORBITAL    9  occ=    2.0000  eig=   -0.7124  GROUP=   2
 DUMP ORBITAL 10.1 AS ORBITAL   10  occ=    2.0000  eig=   -0.5895  GROUP=   2
 DUMP ORBITAL 11.1 AS ORBITAL   11  occ=    2.0000  eig=   -0.5851  GROUP=   2
 DUMP ORBITAL 12.1 AS ORBITAL   12  occ=    2.0000  eig=   -0.5582  GROUP=   2
 DUMP ORBITAL 13.1 AS ORBITAL   13  occ=    2.0000  eig=   -0.5101  GROUP=   2
 DUMP ORBITAL 14.1 AS ORBITAL   14  occ=    2.0000  eig=   -0.4994  GROUP=   2
 DUMP ORBITAL 15.1 AS ORBITAL   15  occ=    2.0000  eig=   -0.4956  GROUP=   2

 Total charge:      30.000000
 Frequency information read from record  5400.2

 **********************************************************************************************************************************

 HF/6-311G(D,P)//HF/6-311G(D,P) energy=   -228.167925573261

    OPTG(HF-SCF)          HF-SCF
   -228.16792557   -228.16357031
 **********************************************************************************************************************************
 Molpro calculation terminated
