[Molden Format]
[Molpro variables]
_NUMVAR=  1094.000000000000    
_AVOGAD= 0.6022140760000000E+24
_BOLTZ= 0.1380649000000000E-22
_CLIGHTSI=  299792458.0000000    
_JOULE= 0.4359744722207100E-17
_JPCAL=  4.184000000000000    
_PLANCK= 0.6626070150000000E-33
_BOHR= 0.5291772109030000E-10
_ECHARG= 0.1602176634000000E-18
_ENULL= 0.8854187812800001E-11
_MU= 0.1660539066600000E-26
_EMASS= 0.9109383701500001E-30
_AMU2AU=  1822.888486217313    
_CLIGHT=  29979245800.00000    
_EV= 0.3674932217565494E-01
_KJOULE= 0.3808798847133432E-03
_KJOULE/MOL= 0.3808798847133432E-03
_CM= 0.4556335252912009E-05
_CM-1= 0.4556335252912009E-05
_DEB2SI= 0.3335640951981520E-29
_KCAL= 0.1593601437640628E-02
_KCAL/MOL= 0.1593601437640628E-02
_KELVIN= 0.3166811563455608E-05
_HERTZ= 0.1519829846057038E-15
_HZ= 0.1519829846057038E-15
_TOA= 0.5291772109030000    
_TOANG= 0.5291772109030000    
_TORAD= 0.1745329251994330E-01
_TOCM=  219474.6313631965    
_TODEBYE=  2.541746473194078    
_TOE= 0.4803204712570263E-09
_TOEV=  27.21138624598803    
_TOHERTZ=  6579683920501656.    
_TOHZ=  6579683920501656.    
_TOK=  315775.0248040668    
_TOKCAL=  627.5094740630558    
_TOKELVIN=  315775.0248040668    
_TOKJ=  2625.499639479825    
_TOKJOULE=  2625.499639479825    
_TOKG= 0.1660539066600000E-26
_ANG=  1.889726124625770    
_ANGSTROM=  1.889726124625770    
_RPAREF=  0.000000000000000    
_RPADISS=  0.000000000000000    
_IGNORE_UNDEF=  2.000000000000000    
_STRICTCHECK=  0.000000000000000    
!SEWARD=  0.000000000000000    
!MULTI=  0.000000000000000    
!DFMULTI=  0.000000000000000    
!NUMHESS=  0.000000000000000    
_SEW_ONEEL=  0.000000000000000    
_CPPDONE=FALSE
_DKROLL_DONE=  0.000000000000000    
_FNUC_DONE=  0.000000000000000    
_FOCKDONE=TRUE
_GRADONE=FALSE
_HESSDONE=TRUE
_INTDONE=TRUE
_SCFDONE=TRUE
_MODUL_BLOCK=FALSE
_MODUL_SLATER=TRUE
_MODUL_MRCC=FALSE
_MODUL_NBO6=FALSE
_MODUL_NECI=FALSE
_MODUL_AIMS=TRUE
_MODUL_HDF5=FALSE
_MODUL_GECCO=FALSE
_ISWINDOWS=FALSE
_MRCC_EXEC=
_FITC_AO_SAVED=FALSE
_FITC_MO_SAVED=FALSE
_LSTYP=SEWARD
_INTYP=INTS
_GEOMTYP=XYZ
_GRADTYP=ALASKA
_DIRECT=FALSE
_DKHO= -1.000000000000000    
_FNUC=  0.000000000000000    
_SYNCM=  0.000000000000000    
_BASIS=6-311G(D,P)
_ZCENTRE=MASS
_ZORIENT=  1.000000000000000    
_NELEC=  30.00000000000000    
!SPIN=  0.000000000000000    
_OPTCONV= 0.1025626092141007E-01
_QSDSTEP=  0.000000000000000    
_QSDIRC=  0.000000000000000    
_PROGRAM=FREQ
_CPUSTEP=  8.079999999999998    
_SYSSTEP= 0.2500000000000000    
_WALLSTEP=  8.340000000000000    
!DFSCF=  0.000000000000000    
!SCSGRD=  0.000000000000000    
_NCEN=  9.000000000000000    
_CPUTOT=  23.76000000000000    
_DFTEXFAC=  1.000000000000000    
_DMX=-0.8586888561356285E-01
_DMY= 0.4524114805441618    
_DMZ= 0.3123962506702829E-01
_DMX_SCF=-0.8586888561356285E-01
_DMY_SCF= 0.4524114805441618    
_DMZ_SCF= 0.3123962506702829E-01
_FREQUENCIES= 0.5630312168395311E-04
_HOMO=  15.10000000000000    
_EHOMO=-0.4956134565443918    
_LUMO=  16.10000000000000    
_ELUMO= 0.1448412086574290    
_ENERGY= -228.1679255732614    
_ENERGY_METHOD=HF
_ENERGY_BASIS=6-311G(D,P)
_GEOMETRY_METHOD=HF
_GEOMETRY_BASIS=6-311G(D,P)
_ENUC=  83.38151060335336    
_GRADENERG= -228.1679250844936    
_GRADEXFAC=  9999.000000000000    
_GRADMETHOD=  1.000000000000000    
_NMRMETHOD=  0.000000000000000    
_NMRMAGNET=  0.000000000000000    
_VIRIAL=-0.1358929080394722E-03
!GRID_FREEZE= -1.000000000000000    
!NEESE_INDEX=  0.000000000000000    
_ITERATIONS=  11.00000000000000    
_LASTNELEC=  30.00000000000000    
_LASTSPIN=  0.000000000000000    
_LASTSYM=  1.000000000000000    
_MPP_PROG=  1.000000000000000    
_MSNSTATES=  0.000000000000000    
_RS2PHASE=  0.000000000000000    
_NPROC_MPP=  6.000000000000000    
_NPROC_SMP=  6.000000000000000    
_NUMSTEP=  0.000000000000000    
_OPTCONVMX= 0.5604556773628024E-02
_OPTCONVRMS= 0.2238099619979960E-02
_OPTGRAD= 0.2787453761270783E-03
_OPTGRADMX= 0.1894284728466277E-03
_OPTGRADRMS= 0.6082722789148919E-04
!GMAXLAST= 0.1894284728466277E-03
!DMAXLAST= 0.5604556773628024E-02
!DELAST= 0.1425728470394461E-05
_OPTSTEP=  17.00000000000000    
_ORBITAL=  2100.200000000000    
_PI=  3.141592653589793    
_SEIG_MIN= 0.1285377649610282E-01
_SEWPROP=TRUE
_STATUS=  1.000000000000000    
_SYSTOT=  1.680000000000000    
_VERSION=  2024001.000000000    
_WALLTOT=  25.64000000000000    
_ZPE= 0.7817731790421599E-01
_DATE=29-Apr-24
_LASTORB=0
_OUTPUT=/home/lme/Bachelor_Thesis_Lukas_Meinschad/Rechnungen/crest_meres/SPLIT/STRUC1/lol.out
_PGROUP=C1
_TIME=14:28:41
_LIBMOL=/usr/local/molpro/molpro_2024.1.0_sockets/lib/
_VIGRDC=  0.000000000000000    
!VIBCNT=  0.000000000000000    
!SURFREC=  0.000000000000000    
!XSURFREC=  0.000000000000000    
!XPOLYREC=  0.000000000000000    
!ROTREC=  0.000000000000000    
!POLYREC=  0.000000000000000    
!DIPREC=  0.000000000000000    
!DIP4DREC=  0.000000000000000    
!DIPROT=  0.000000000000000    
!DIP4DROT=  0.000000000000000    
!PTREC=  0.000000000000000    
!PT4DREC=  0.000000000000000    
!VSCFREC=  0.000000000000000    
!VCIREC=  0.000000000000000    
!PVCIREC=  0.000000000000000    
!VMP2REC=  0.000000000000000    
!VMCSCFREC=  0.000000000000000    
!VMRCIREC=  0.000000000000000    
!VIBSTATEREC=  0.000000000000000    
!VIBSTATECNT=  0.000000000000000    
!VIBINFO=  0.000000000000000    
!GAREC=  0.000000000000000    
!SCFORB=  21002.00000000000    
!DEFCORE=  3.000000000000000    
!SCORE=  0.000000000000000    
!NEWMOL=  0.000000000000000    
!NEWSYM=  0.000000000000000    
_SLFILES=slscratch
_NGSSTO=  9.000000000000000    
_SIN=SIN
_COS=COS
_TAN=TAN
_ACOS=ACOS
_ASIN=ASIN
_ATAN=ATAN
_COSH=COSH
_SINH=SINH
_TANH=TANH
_ABS=ABS
_MOD=MOD
_ERF=ERF
_REFC=REFC
_ERFC=ERFC
_HYPOT=HYPOT
_J0=J0
_J1=J1
_JN=JN
_GAMMA=GAMMA
_LGAMMA=LGAMMA
_Y0=Y0
_Y1=Y1
_YN=YN
_EXP=EXP
_LOG=LOG
_LOG10=LOG10
_SQRT=SQRT
_INT=INT
_NINT=NINT
_MAX=MAX
_MIN=MIN
_COSMO=  0.000000000000000    
_COSMOIT=  0.000000000000000    
_COSMOES=  0.000000000000000    
_COSMOEDS=  0.000000000000000    
_COSMOEC=  0.000000000000000    
_COSMOEDCORR=  0.000000000000000    
_FEPSI=  1.000000000000000    
_SL_IsMM=  0.000000000000000    
_SL_NSYM=  1.000000000000000    
_SL_System_BitSw=  0.000000000000000    
_SL_Unique_atoms=  0.000000000000000    
_SL_GRAD=  0.000000000000000    
_SL_MAXUPD_Hess=  5.000000000000000    
_SL_N_PRINT_COD=  5.000000000000000    
_SL_PRINT_CODES=  0.000000000000000    
_SL_BasType=  0.000000000000000    
_SL_Energy_Pred=  0.000000000000000    
_SL_New_Coords=  0.000000000000000    
_SL_Total_Nuclea=  0.000000000000000    
_SL_Highest_Mltp=  0.000000000000000    
_SL_Ref_Geom=  0.000000000000000    
_SL_Symmetry_ope=  1.000000000000000    
_SL_agrad=  0.000000000000000    
_SL_GrdMax=  0.000000000000000    
_SL_GrdNorm=  0.000000000000000    
_SL_GrdRMS=  0.000000000000000    
_SL_Hss_Q=  0.000000000000000    
_SL_Hss_X=  0.000000000000000    
_SL_BMxOld=  0.000000000000000    
_SL_KtB=  0.000000000000000    
_SL_TROld=  0.000000000000000    
_SL_No_of_Intern=  0.000000000000000    
_SL_Hess=  0.000000000000000    
_SL_K=  0.000000000000000    
!LATTICE= -1.000000000000000    
!NEWLATTICE=  0.000000000000000    
!LATGRAD_VAR=FALSE
!SEW_LATTICE=  1.000000000000000    
!AIC_ONEEL=  0.000000000000000    
!LOCAL=  0.000000000000000    
!SAVEDOM= -1.000000000000000    
!RESTDOM= -1.000000000000000    
!SAVEDOM_HF= -1.000000000000000    
!RESTDOM_HF= -1.000000000000000    
!HESSREC=  5300.200000000000    
!FREQREC=  5400.200000000000    
!NMODREC=  5450.200000000000    
!GTASKS=  0.000000000000000    
!HTASKS=  0.000000000000000    
!SAVEDOM_EOM= -1.000000000000000    
!RESTDOM_EOM= -1.000000000000000    
!GRADSTATE= -1.000000000000000    
!DEBUG=  0.000000000000000    
!CFIT_CPHF=  0.000000000000000    
!RDOMAUX_CPHF=  0.000000000000000    
!THRAO_CPHF= 0.1000000000000000E-11
!THRMO_CPHF= 0.1000000000000000E-11
!THROV_CPHF= 0.1000000000000000E-13
!THRSW_CPHF= 0.1000000000000000E-11
!THRPROD_CPHF= 0.1000000000000000E-11
!THRAOPR_CPHF= 0.1000000000000000E-11
!CFIT_SCFGRD=  0.000000000000000    
!RDOMAUX_SCFGRD=  0.000000000000000    
!THRAO_SCFGRD= 0.1000000000000000E-11
!THRMO_SCFGRD= 0.1000000000000000E-11
!THROV_SCFGRD= 0.1000000000000000E-13
!THRSW_SCFGRD= 0.1000000000000000E-11
!THRPROD_SCFGRD= 0.1000000000000000E-11
!THRAOPR_SCFGRD= 0.1000000000000000E-11
!LOCFIT_SCF=  0.000000000000000    
!LOCFIT_MP2=  0.000000000000000    
_RIDOM=  0.000000000000000    
!CC2_METHOD=  0.000000000000000    
_BASIS2006=FALSE
_SVDDEL= -1.000000000000000    
_SVDDELA= -1.000000000000000    
_SVDDELP= -1.000000000000000    
_SVDDELF= -1.000000000000000    
_SVDDELS= -1.000000000000000    
_SVDDEL_ABS= -1.000000000000000    
_SVDDELA_ABS= -1.000000000000000    
_SVDDELP_ABS= -1.000000000000000    
_SVDDELF_ABS= -1.000000000000000    
_SVDDELS_ABS= -1.000000000000000    
_MAXBASIS=  0.000000000000000    
!OPT_CONICAL=  0.000000000000000    
!CLEARSP_JGRID=  0.000000000000000    
_GRDHYBR=  0.000000000000000    
_STATEGRAD=  1.000000000000000    
_4EXT_NDISKS=  1.000000000000000    
!EMBEDFLAG=  1.000000000000000    
!EMBED=FALSE
!EMBED_F12=FALSE
!EMBEDNUC=  0.000000000000000    
_EMBEDENERGY=  0.000000000000000    
!EMBED_DFC=FALSE
!NUM_VOIDS=  0.000000000000000    
_IBODY=  0.000000000000000    
_EMBE_CORR=  0.000000000000000    
!EMBED_PROJ=FALSE
!EMB_PROJ_ZMU=  1000000.000000000    
!CORRECTION_HF=  0.000000000000000    
!EMBED_AORB=  0.000000000000000    
!EMBED_NACORR=  0.000000000000000    
!EMBED_MP2=FALSE
!EMBED_TRUNC_PERTURBATION=FALSE
!EMBED_FROZEN=  0.000000000000000    
!EMBED_ACTIVE=  0.000000000000000    
_CHANGE_BASIS=FALSE
_RESTORE_BASIS=FALSE
_FIX_EMBED_GUESS=FALSE
_EMBED_SCF=FALSE
_NEOBAS=FALSE
_NEOOVE=FALSE
_PRINEO=FALSE
_HUZINAGA_T=FALSE
_HUZINAGA_F=FALSE
_HUZINAGA=FALSE
_HUZINAGA_CORRECT=FALSE
!FASTLATGRAD=  1.000000000000000    
!FASTVLAMBDA= -1.000000000000000    
!IFORCE= -1.000000000000000    
!USESYM= -1.000000000000000    
_SINDEX=  0.000000000000000    
_AVDOM_OSV=  0.000000000000000    
_AVDOM_PNO=  0.000000000000000    
_AVDOM_PNOCC=  0.000000000000000    
_AVDOM_TNO=  0.000000000000000    
_AVDOM_TNOIT=  0.000000000000000    
_AVDOM_PAO=  0.000000000000000    
_AVDOM_LMO=  0.000000000000000    
_CC2OSV_FLAG=  0.000000000000000    
_EOMCCSD_CONV=FALSE
_TMADC2_FLAG=FALSE
_PROPADC2_FLAG=FALSE
_LEN_VirQ=  0.000000000000000    
_GRDCC2LR_FLAG=FALSE
_GRDADC2_FLAG=FALSE
_RO_VGLOBAL=  0.000000000000000    
_OPT=FALSE
_FREQ=FALSE
_HESS=FALSE
_CMRCC_callName=EMPTY
_CMRCC_callCount=  0.000000000000000    
_GECCO_CIROOT=  1.000000000000000    
_SYM_CATION=  1.000000000000000    
_MON_A=FALSE
_MON_B=FALSE
_MAXGEOM=  100.0000000000000    
!MAXGEOM=  100.0000000000000    
_NCORE=  0.000000000000000    
_NLARGECORE=  0.000000000000000    
GX1=  1.658102855066625    
GY1= 0.5808466323021956E-01
GZ1=-0.1260169910789872E-01
GX2=  2.233655145835191    
GY2=-0.6665917853998340    
GZ2= 0.1572354770021101    
GX3=  1.054240268292084    
GY3= 0.9301975798899288E-01
GZ3= 0.7183886927867785    
GX4=-0.8390622576613722    
GY4=-0.5064305402148900E-01
GZ4= -1.437660804354069    
GX5= 0.9627271691568665E-01
GY5=-0.4837314366387663E-01
GZ5= -1.277939426605810    
GX6= -1.004255964641143    
GY6= 0.6439322353616855    
GZ6= -2.050031677780533    
GX7=-0.8124968657354088    
GY7=-0.4151817111709418E-01
GZ7=  1.448647024206718    
GX8= -1.167300024009159    
GY8=-0.8749376386273547E-01
GZ8= 0.5701202500926454    
GX9= -1.316465885972445    
GY9= 0.6063263268262372    
GZ9=  1.907865506021027    
OX1=  3.133360282535978    
OY1= 0.1097641055462358    
OZ1=-0.2381376001886936E-01
HX2=  4.220996482489545    
HY2= -1.259675911331001    
HZ2= 0.2971319886088820    
HX3=  1.992225376624031    
HY3= 0.1757818667781665    
HZ3=  1.357557880394932    
OX4= -1.585597868490174    
OY4=-0.9570150221524194E-01
OZ4= -2.716785180338382    
HX5= 0.1819290682442747    
HY5=-0.9141199331190322E-01
HZ5= -2.414955520146276    
HX6= -1.897768732193622    
HY6=  1.216855567651647    
HZ6= -3.873998417812272    
OX7= -1.535396553356759    
OY7=-0.7845797260665598E-01
OZ7=  2.737546127004816    
HX8= -2.205877350646396    
HY8=-0.1653392513132494    
HZ8=  1.077371130778250    
HX9= -2.487759976900739    
HY9=  1.145790699851923    
HZ9=  3.605343289000300    
[Atoms] Angs
O     1    8         1.6581028551        0.0580846632       -0.0126016991
H     2    1         2.2336551458       -0.6665917854        0.1572354770
H     3    1         1.0542402683        0.0930197580        0.7183886928
O     4    8        -0.8390622577       -0.0506430540       -1.4376608044
H     5    1         0.0962727169       -0.0483731437       -1.2779394266
H     6    1        -1.0042559646        0.6439322354       -2.0500316778
O     7    8        -0.8124968657       -0.0415181711        1.4486470242
H     8    1        -1.1673000240       -0.0874937639        0.5701202501
H     9    1        -1.3164658860        0.6063263268        1.9078655060
[GTO]
   1 0
 s    6  1.00
  0.8588500000D+04  0.1895150083D-02
  0.1297230000D+04  0.1438590063D-01
  0.2992960000D+03  0.7073200310D-01
  0.8737710000D+02  0.2400010105D+00
  0.2567890000D+02  0.5947970261D+00
  0.3740040000D+01  0.2808020123D+00
 s    3  1.00
  0.4211750000D+02  0.1138890124D+00
  0.9628370000D+01  0.9208111006D+00
  0.2853320000D+01 -0.3274470358D-02
 s    1  1.00
  0.9056610000D+00  0.1000000000D+01
 s    1  1.00
  0.2556110000D+00  0.1000000000D+01
 p    3  1.00
  0.4211750000D+02  0.3651139738D-01
  0.9628370000D+01  0.2371529830D+00
  0.2853320000D+01  0.8197019412D+00
 p    1  1.00
  0.9056610000D+00  0.1000000000D+01
 p    1  1.00
  0.2556110000D+00  0.1000000000D+01
 d    1  1.00
  0.1292000000D+01  0.1000000000D+01
  
   2 0
 s    3  1.00
  0.3386500000D+02  0.2549381454D-01
  0.5094790000D+01  0.1903731086D+00
  0.1158790000D+01  0.8521614860D+00
 s    1  1.00
  0.3258400000D+00  0.1000000000D+01
 s    1  1.00
  0.1027410000D+00  0.1000000000D+01
 p    1  1.00
  0.7500000000D+00  0.1000000000D+01
  
   3 0
 s    3  1.00
  0.3386500000D+02  0.2549381454D-01
  0.5094790000D+01  0.1903731086D+00
  0.1158790000D+01  0.8521614860D+00
 s    1  1.00
  0.3258400000D+00  0.1000000000D+01
 s    1  1.00
  0.1027410000D+00  0.1000000000D+01
 p    1  1.00
  0.7500000000D+00  0.1000000000D+01
  
   4 0
 s    6  1.00
  0.8588500000D+04  0.1895150083D-02
  0.1297230000D+04  0.1438590063D-01
  0.2992960000D+03  0.7073200310D-01
  0.8737710000D+02  0.2400010105D+00
  0.2567890000D+02  0.5947970261D+00
  0.3740040000D+01  0.2808020123D+00
 s    3  1.00
  0.4211750000D+02  0.1138890124D+00
  0.9628370000D+01  0.9208111006D+00
  0.2853320000D+01 -0.3274470358D-02
 s    1  1.00
  0.9056610000D+00  0.1000000000D+01
 s    1  1.00
  0.2556110000D+00  0.1000000000D+01
 p    3  1.00
  0.4211750000D+02  0.3651139738D-01
  0.9628370000D+01  0.2371529830D+00
  0.2853320000D+01  0.8197019412D+00
 p    1  1.00
  0.9056610000D+00  0.1000000000D+01
 p    1  1.00
  0.2556110000D+00  0.1000000000D+01
 d    1  1.00
  0.1292000000D+01  0.1000000000D+01
  
   5 0
 s    3  1.00
  0.3386500000D+02  0.2549381454D-01
  0.5094790000D+01  0.1903731086D+00
  0.1158790000D+01  0.8521614860D+00
 s    1  1.00
  0.3258400000D+00  0.1000000000D+01
 s    1  1.00
  0.1027410000D+00  0.1000000000D+01
 p    1  1.00
  0.7500000000D+00  0.1000000000D+01
  
   6 0
 s    3  1.00
  0.3386500000D+02  0.2549381454D-01
  0.5094790000D+01  0.1903731086D+00
  0.1158790000D+01  0.8521614860D+00
 s    1  1.00
  0.3258400000D+00  0.1000000000D+01
 s    1  1.00
  0.1027410000D+00  0.1000000000D+01
 p    1  1.00
  0.7500000000D+00  0.1000000000D+01
  
   7 0
 s    6  1.00
  0.8588500000D+04  0.1895150083D-02
  0.1297230000D+04  0.1438590063D-01
  0.2992960000D+03  0.7073200310D-01
  0.8737710000D+02  0.2400010105D+00
  0.2567890000D+02  0.5947970261D+00
  0.3740040000D+01  0.2808020123D+00
 s    3  1.00
  0.4211750000D+02  0.1138890124D+00
  0.9628370000D+01  0.9208111006D+00
  0.2853320000D+01 -0.3274470358D-02
 s    1  1.00
  0.9056610000D+00  0.1000000000D+01
 s    1  1.00
  0.2556110000D+00  0.1000000000D+01
 p    3  1.00
  0.4211750000D+02  0.3651139738D-01
  0.9628370000D+01  0.2371529830D+00
  0.2853320000D+01  0.8197019412D+00
 p    1  1.00
  0.9056610000D+00  0.1000000000D+01
 p    1  1.00
  0.2556110000D+00  0.1000000000D+01
 d    1  1.00
  0.1292000000D+01  0.1000000000D+01
  
   8 0
 s    3  1.00
  0.3386500000D+02  0.2549381454D-01
  0.5094790000D+01  0.1903731086D+00
  0.1158790000D+01  0.8521614860D+00
 s    1  1.00
  0.3258400000D+00  0.1000000000D+01
 s    1  1.00
  0.1027410000D+00  0.1000000000D+01
 p    1  1.00
  0.7500000000D+00  0.1000000000D+01
  
   9 0
 s    3  1.00
  0.3386500000D+02  0.2549381454D-01
  0.5094790000D+01  0.1903731086D+00
  0.1158790000D+01  0.8521614860D+00
 s    1  1.00
  0.3258400000D+00  0.1000000000D+01
 s    1  1.00
  0.1027410000D+00  0.1000000000D+01
 p    1  1.00
  0.7500000000D+00  0.1000000000D+01


[MO]
 Sym=      1.1
 Ene=     -20.5437
 Spin= Alpha
 Occup=    2.000000
1 -0.000974910854947
2 -0.000838990018189
3 0.000036444657725
4 -0.000188409423576
5 0.000003027002477
6 -0.000003265970963
7 -0.000009089489697
8 -0.000011350261270
9 0.000019289765356
10 0.000023331722761
11 0.000058293136338
12 -0.000007188862181
13 -0.000091222226961
14 -0.000006511914419
15 -0.000000643271225
16 0.000007155185644
17 0.000004434955027
18 0.000002794211112
19 0.000004671714554
20 0.000000437119749
21 0.000048901527172
22 -0.000068145587511
23 -0.000010685385289
24 0.000012403983904
25 0.000003364260994
26 -0.000024866209037
27 0.000125423577216
28 0.000175070444325
29 -0.000037336178883
30 -0.000007755611333
31 0.000000528536670
32 -0.000633142451168
33 -0.000542311948903
34 0.000003663670289
35 -0.000052105136300
36 0.000002125369544
37 -0.000000965360671
38 -0.000004101551691
39 -0.000008622758530
40 -0.000003429768578
41 0.000011785180172
42 0.000017542399229
43 -0.000011788729071
44 -0.000039828642582
45 0.000001963059910
46 0.000000384412331
47 -0.000002347472241
48 0.000001062844511
49 -0.000000802906807
50 0.000002261454935
51 0.000000069209726
52 0.000007229204704
53 -0.000025338474508
54 -0.000003199425126
55 0.000001363958726
56 0.000000338285630
57 -0.000005542884873
58 0.000036186250370
59 -0.000024202627678
60 -0.000001372633760
61 -0.000003247172665
62 0.000010796339078
63 0.55142344370020
64 0.47166416346314
65 0.005643903759231
66 -0.000579094695471
67 -0.001189261177540
68 0.000952588676233
69 -0.000540468694381
70 0.000441236561014
71 -0.000331895614896
72 0.000157856059668
73 -0.000126631676628
74 0.000055139329232
75 0.000060677934149
76 0.000022961953632
77 0.000027631113349
78 -0.000050593066981
79 0.000065343882316
80 -0.000012918721303
81 -0.000069831644371
82 0.000184216250706
83 0.000152874268783
84 0.000132123445530
85 0.000018431019853
86 0.000028707940202
87 0.000060743828647
88 0.000197722857619
89 0.000098613657240
90 0.000041885100688
91 0.000025863103209
92 -0.000027471077974
93 -0.000061948627704
 Sym=      2.1
 Ene=     -20.5421
 Spin= Alpha
 Occup=    2.000000
1 0.55142129495328
2 0.47166160269937
3 0.005643237731499
4 -0.000608353660144
5 -0.000015392560072
6 -0.001070518775299
7 0.001214767110331
8 -0.000035940309257
9 0.000376321966173
10 -0.000432090399968
11 0.000107097362672
12 -0.000053997741198
13 0.000063648550143
14 -0.000010428443095
15 0.000007987290795
16 0.000002441152301
17 0.000093361154903
18 0.000052414778182
19 0.000022030837189
20 0.000197051707057
21 0.000124629461084
22 0.000033157481351
23 -0.000069214330598
24 0.000038205777792
25 0.000008543656144
26 0.000183856905700
27 0.000168177573765
28 0.000142962618108
29 0.000044433640607
30 -0.000031636749106
31 -0.000049971235393
32 -0.001951403728032
33 -0.001674068968653
34 0.000025683333846
35 -0.000194148076669
36 -0.000011546237783
37 0.000000497248730
38 0.000002985596585
39 0.000027444126737
40 -0.000016049536436
41 -0.000001747623340
42 -0.000113980452948
43 -0.000001559086676
44 -0.000001254710738
45 0.000001446645026
46 -0.000000337055593
47 -0.000001109589433
48 -0.000001186545788
49 -0.000008668349980
50 0.000006671982658
51 -0.000026994252684
52 0.000133837755536
53 0.000171871859623
54 0.000017101410973
55 0.000005554327195
56 0.000031320683010
57 -0.000000806267196
58 0.000057125556988
59 -0.000069284877153
60 0.000010208982858
61 -0.000012875819834
62 0.000009146525203
63 0.000973470470767
64 0.000831664136286
65 0.000020549046011
66 -0.000036215130357
67 -0.000008584798128
68 0.000002381152187
69 -0.000001650806268
70 0.000017402380113
71 -0.000004775948620
72 0.000003651590173
73 -0.000059152826810
74 0.000000224246430
75 0.000007374586232
76 -0.000001296079052
77 0.000001403961358
78 -0.000000107882307
79 -0.000000751475400
80 0.000002317096431
81 -0.000000787372436
82 -0.000000029588660
83 0.000005074904215
84 -0.000038295390863
85 0.000002972747237
86 0.000000615074746
87 0.000001008626971
88 -0.000001902614399
89 0.000006211224779
90 -0.000012025438486
91 0.000007574133170
92 0.000001788492337
93 -0.000000656809741
 Sym=      3.1
 Ene=     -20.5413
 Spin= Alpha
 Occup=    2.000000
1 0.001951099592729
2 0.001667961676259
3 0.000030565884058
4 -0.000044284366106
5 0.000002578870124
6 -0.000004547936791
7 0.000009854402198
8 -0.000005193860509
9 0.000005849475195
10 -0.000015993917718
11 0.000033582228669
12 0.000002286228576
13 0.000040641396032
14 -0.000001982787320
15 0.000001154232325
16 0.000000828554994
17 0.000001252419467
18 -0.000001447864213
19 -0.000000886355183
20 -0.000002433617221
21 0.000017994388764
22 -0.000020356228485
23 -0.000005374635823
24 0.000000350528370
25 -0.000005775877875
26 0.000000626581831
27 0.000007203960248
28 -0.000028646798955
29 0.000000538534450
30 0.000000533649167
31 -0.000003646936220
32 0.55142105501609
33 0.47166208824438
34 0.005642589049137
35 -0.000573344483211
36 0.001019485366870
37 0.001082129237091
38 -0.000637965160062
39 -0.000340557540538
40 -0.000380086775554
41 0.000258725430142
42 0.000006798633226
43 0.000074317330500
44 -0.000132658867105
45 -0.000041784182424
46 0.000015972248450
47 0.000025811933973
48 0.000023151132536
49 -0.000036209873752
50 0.000090409899024
51 0.000183353791870
52 0.000152917626968
53 0.000137353045189
54 -0.000061369734150
55 0.000024322608670
56 -0.000013570079985
57 0.000199467641206
58 0.000088798204832
59 0.000044720528899
60 0.000040216037220
61 -0.000029192140657
62 0.000050278458743
63 0.000637359112979
64 0.000540563952082
65 0.000050163505156
66 -0.000196034024098
67 0.000002785519789
68 0.000005273544077
69 0.000005304340977
70 -0.000011329878424
71 -0.000018019590755
72 -0.000020280668855
73 0.000057225484818
74 0.000002616715557
75 0.000093985937145
76 0.000005516341343
77 0.000000994730221
78 -0.000006511071564
79 0.000007285643215
80 0.000005452827122
81 -0.000003368158518
82 -0.000023552580105
83 0.000125600733286
84 0.000173725517667
85 0.000019275868972
86 0.000003874838324
87 -0.000027339451227
88 -0.000001992503339
89 0.000066364269775
90 -0.000074957706569
91 0.000004705359460
92 -0.000013307192192
93 -0.000014207498207
 Sym=      4.1
 Ene=      -1.3590
 Spin= Alpha
 Occup=    2.000000
1 -0.063866004095602
2 -0.10661556885929
3 0.30130164801640
4 0.21808124712821
5 -0.002586580622975
6 -0.012698560504321
7 0.015446166203442
8 -0.003684633337842
9 -0.021709281616609
10 0.026090286245244
11 -0.006464611590823
12 -0.007282430135283
13 0.007197556202764
14 0.000552143863961
15 -0.000625697477421
16 0.000073553613460
17 -0.003466402174693
18 -0.002691413418966
19 -0.001648962621703
20 0.053289981739119
21 0.041819156625197
22 0.001671118747739
23 -0.009526529084157
24 0.011310831948194
25 -0.001396652722918
26 0.054429933337503
27 0.041715351169343
28 -0.004493867478813
29 0.010369641725403
30 -0.001519194323616
31 -0.011007666200588
32 -0.060311388824620
33 -0.10068088516607
34 0.28454378605944
35 0.20551123709477
36 0.013356813113787
37 0.012101208148585
38 -0.005512182613450
39 0.022240738079142
40 0.020660843876363
41 -0.009908097430822
42 0.008399904593260
43 0.006916942472947
44 0.001813060381213
45 0.002082341905682
46 -0.000863779859352
47 -0.001218562046330
48 -0.000151581132786
49 0.001632247458716
50 -0.003616436161914
51 0.051290614234033
52 0.039787644406409
53 -0.004296755570560
54 -0.013989185422940
55 0.000898713680375
56 -0.003304559032367
57 0.050304651837164
58 0.039706457629103
59 0.001742434744566
60 0.003745089573607
61 -0.010192489554552
62 0.008925906557852
63 -0.070456787528875
64 -0.11762957631064
65 0.33262069311468
66 0.23976749497178
67 -0.015268549355005
68 0.012426980980784
69 -0.009539299209058
70 -0.026144757149990
71 0.021078219657557
72 -0.015560957740545
73 -0.004284391882283
74 0.007392690795734
75 -0.008972086114820
76 -0.001142921642361
77 -0.001614202370155
78 0.002757124012516
79 -0.003546250682677
80 0.000902050508617
81 0.002599854143480
82 0.059289729305910
83 0.045755220716613
84 -0.004459821199371
85 0.005029923105695
86 0.001915671182818
87 0.015970070289281
88 0.058923542219592
89 0.046940933723264
90 0.001441423756931
91 0.007751979749110
92 -0.011294912825178
93 -0.009230322588657
 Sym=      5.1
 Ene=      -1.3450
 Spin= Alpha
 Occup=    2.000000
1 0.054327891061045
2 0.090754875358087
3 -0.25730466032684
4 -0.18483409654444
5 0.000130023628270
6 0.011180188891230
7 -0.012022379009984
8 0.000233694166157
9 0.018760783568113
10 -0.020788031600272
11 0.002431823836853
12 0.006097043092532
13 -0.004484252295226
14 -0.000209188637926
15 0.000277391742525
16 -0.000068203104599
17 0.003053632309653
18 0.001893245443897
19 0.001335880255531
20 -0.046313891194532
21 -0.038207769103779
22 0.000222016461152
23 0.008463077956802
24 -0.009946024971498
25 0.001185412114242
26 -0.041195764026075
27 -0.031541357454384
28 0.003687926124890
29 -0.009017476615020
30 0.001393422599444
31 0.009433591009153
32 0.046231683435516
33 0.077216890399549
34 -0.21876887198511
35 -0.15564899740669
36 -0.010848219291050
37 -0.009569292976932
38 0.006926832060548
39 -0.017382825872055
40 -0.016018178741384
41 0.010845771261878
42 -0.008132260349556
43 -0.005192663226532
44 0.002933138858493
45 -0.001686068957762
46 0.000607236394700
47 0.001078832563062
48 0.000073831985087
49 -0.001149720335476
50 0.002906288492681
51 -0.039523603336994
52 -0.030246518702015
53 0.003057030931455
54 0.010797159765474
55 -0.000734320220097
56 0.003126896257302
57 -0.039606503946010
58 -0.033355228539800
59 0.000954110541511
60 -0.002877981385658
61 0.008174643523583
62 -0.007241253226278
63 -0.089201074300771
64 -0.14901536185508
65 0.42259934244241
66 0.30092227670033
67 -0.022026461152173
68 0.016166438093920
69 -0.009284115450000
70 -0.036126741590473
71 0.027062434885517
72 -0.015718455565125
73 -0.010075698145113
74 0.008845782996483
75 -0.007602487248447
76 -0.001233137313997
77 -0.001794304641727
78 0.003027441955724
79 -0.004572057754417
80 0.001227050384235
81 0.003373806128180
82 0.071127293373722
83 0.054833191440698
84 -0.006028272613142
85 0.005948210620796
86 0.002421989967583
87 0.020794133469458
88 0.076476148674285
89 0.064604200870118
90 -0.001457163335307
91 0.010403982796180
92 -0.014880841814398
93 -0.012274930845354
 Sym=      6.1
 Ene=      -1.3436
 Spin= Alpha
 Occup=    2.000000
1 0.076773282637215
2 0.12824900710591
3 -0.36358412232277
4 -0.25962580907968
5 -0.000414457788201
6 0.015734351796944
7 -0.020058715100932
8 -0.000220688335232
9 0.026419686062496
10 -0.032610343983392
11 0.002294053547277
12 0.008635509581281
13 -0.011875865162215
14 -0.000318214236891
15 0.000524163027145
16 -0.000205948790255
17 0.004331054000516
18 0.003048591616835
19 0.002044117069203
20 -0.065798048629181
21 -0.054667321216564
22 0.001360264737268
23 0.011982952112274
24 -0.014164280417178
25 0.001859504874383
26 -0.062637901573946
27 -0.047915953553306
28 0.005402591525442
29 -0.013197418373513
30 0.001918903046499
31 0.013124175914660
32 -0.084543391262838
33 -0.14122813793859
34 0.40040681764438
35 0.28628448033142
36 0.016804903525686
37 0.017546792491260
38 -0.010975529853605
39 0.028332008005761
40 0.029377860444075
41 -0.018177637045689
42 0.009518324643867
43 0.009544131827726
44 -0.002409058128046
45 0.002569660953074
46 -0.000885466190420
47 -0.001684194762654
48 -0.000316958554484
49 0.001852001942338
50 -0.005232192980700
51 0.066160547114661
52 0.050851647320259
53 -0.005924243391011
54 -0.019862088997517
55 0.001384462386097
56 -0.005234138682480
57 0.072379419771930
58 0.060575186716862
59 -0.000773943012848
60 0.005507171984150
61 -0.014879840168455
62 0.013157671270355
63 0.002899277690264
64 0.004847871425204
65 -0.013845988157223
66 -0.010242418429690
67 -0.000857085895509
68 -0.000609774318523
69 -0.000418951131741
70 -0.000475207506197
71 -0.000998531098000
72 -0.000335863821423
73 -0.002691463547301
74 -0.000158547401782
75 -0.001103452696906
76 -0.000073394683543
77 -0.000046217306526
78 0.000119611990069
79 0.000065974315330
80 0.000091529056384
81 -0.000115562080901
82 0.000438685953793
83 0.000081771968754
84 0.000040360459344
85 -0.000409123376988
86 -0.000018745444069
87 -0.000610404304837
88 -0.002299292747867
89 -0.002381723124421
90 -0.000076092860635
91 -0.000255730176126
92 0.000495370743395
93 0.000527566115182
 Sym=      7.1
 Ene=      -0.7389
 Spin= Alpha
 Occup=    2.000000
1 -0.001702934093099
2 -0.002898747980389
3 0.009256247073108
4 -0.003559663518103
5 0.10441861189148
6 -0.055896421166857
7 -0.030465231265896
8 0.15986139618170
9 -0.085809363483369
10 -0.046286800785534
11 0.10730130434508
12 -0.048539994318412
13 -0.027472405744095
14 -0.001380765544811
15 0.008001582533292
16 -0.006620816988481
17 -0.007864369640365
18 0.008829089614284
19 -0.002687968677409
20 0.084398425762111
21 0.11643880498831
22 0.025064426600350
23 -0.008200842815986
24 0.014864861310540
25 -0.005907820096040
26 -0.074293537092393
27 -0.096889908055339
28 -0.022532079142561
29 -0.004712941408239
30 -0.002315400930982
31 0.015715851003445
32 -0.001065560161095
33 -0.001814437331156